 DBCSR| CPU Multiplication driver                                           XSMM
 DBCSR| Multrec recursion limit                                              512
 DBCSR| Multiplication stack size                                           1000
 DBCSR| Maximum elements for images                                    UNLIMITED
 DBCSR| Multiplicative factor virtual images                                   1
 DBCSR| Use multiplication densification                                       T
 DBCSR| Multiplication size stacks                                             3
 DBCSR| Use memory pool for CPU allocation                                     F
 DBCSR| Number of 3D layers                                               SINGLE
 DBCSR| Use MPI memory allocation                                              F
 DBCSR| Use RMA algorithm                                                      F
 DBCSR| Use Communication thread                                               T
 DBCSR| Communication thread load                                             72


  **** **** ******  **  PROGRAM STARTED AT               2020-04-22 10:53:37.412
 ***** ** ***  *** **   PROGRAM STARTED ON                               cn-0021
 **    ****   ******    PROGRAM STARTED BY                                  lass
 ***** **    ** ** **   PROGRAM PROCESS ID                                 85548
  **** **  *******  **  PROGRAM STARTED IN /scratch/hpc-prf-ldft/lass/lass20_sc/
                                           eval/software/weak-scaling-NS-tweaked
                                           -to-5threads/run5-pinned

 CP2K| version string:                    CP2K version 8.0 (Development Version)
 CP2K| source code revision number:                                  git:28e460e
 CP2K| cp2kflags: omp libint fftw3 libxc elpa parallel mpi3 scalapack xsmm max_c
 CP2K|            ontr=4 mkl
 CP2K| is freely available from                            https://www.cp2k.org/
 CP2K| Program compiled at                         Sa 11. Apr 21:37:19 CEST 2020
 CP2K| Program compiled on                                               ln-0001
 CP2K| Program compiled for                                   Linux-x86-64-intel
 CP2K| Data directory path                  /scratch/hpc-prf-ldft/lass/cp2k/data
 CP2K| Input file name                                              20-input.inp
 
 GLOBAL| Force Environment number                                              1
 GLOBAL| Basis set file name                                        BASIS_MOLOPT
 GLOBAL| Potential file name                                           POTENTIAL
 GLOBAL| MM Potential file name                                     MM_POTENTIAL
 GLOBAL| Coordinate file name                                      __STD_INPUT__
 GLOBAL| Method name                                                        CP2K
 GLOBAL| Project name                                                        H2O
 GLOBAL| Preferred FFT library                                             FFTW3
 GLOBAL| Preferred diagonalization lib.                                     ELPA
 GLOBAL| Run type                                                         ENERGY
 GLOBAL| All-to-all communication in single precision                          F
 GLOBAL| FFTs using library dependent lengths                                  T
 GLOBAL| Global print level                                               MEDIUM
 GLOBAL| MPI I/O enabled                                                       T
 GLOBAL| Total number of message passing processes                            32
 GLOBAL| Number of threads for this process                                    5
 GLOBAL| This output is from process                                           0
 GLOBAL| CPU model name                 Intel(R) Xeon(R) Gold 6148 CPU @ 2.40GHz
 GLOBAL| CPUID                                                              1003

 MEMORY| system memory details [Kb]
 MEMORY|                        rank 0           min           max       average
 MEMORY| MemTotal            196699340     196699340     196699340     196699340
 MEMORY| MemFree             170185788     170185788     186366536     182105381
 MEMORY| Buffers                     0             0             0             0
 MEMORY| Cached               21515492       5395344      21515492       9600094
 MEMORY| Slab                  1689780       1306864       1949720       1658312
 MEMORY| SReclaimable           418432        317024       1136504        619536
 MEMORY| MemLikelyFree       192119712     192119712     192552320     192325011


 *** Fundamental physical constants (SI units) ***

 *** Literature: B. J. Mohr and B. N. Taylor,
 ***             CODATA recommended values of the fundamental physical
 ***             constants: 2006, Web Version 5.1
 ***             http://physics.nist.gov/constants

 Speed of light in vacuum [m/s]                             2.99792458000000E+08
 Magnetic constant or permeability of vacuum [N/A**2]       1.25663706143592E-06
 Electric constant or permittivity of vacuum [F/m]          8.85418781762039E-12
 Planck constant (h) [J*s]                                  6.62606896000000E-34
 Planck constant (h-bar) [J*s]                              1.05457162825177E-34
 Elementary charge [C]                                      1.60217648700000E-19
 Electron mass [kg]                                         9.10938215000000E-31
 Electron g factor [ ]                                     -2.00231930436220E+00
 Proton mass [kg]                                           1.67262163700000E-27
 Fine-structure constant                                    7.29735253760000E-03
 Rydberg constant [1/m]                                     1.09737315685270E+07
 Avogadro constant [1/mol]                                  6.02214179000000E+23
 Boltzmann constant [J/K]                                   1.38065040000000E-23
 Atomic mass unit [kg]                                      1.66053878200000E-27
 Bohr radius [m]                                            5.29177208590000E-11

 *** Conversion factors ***

 [u] -> [a.u.]                                              1.82288848426455E+03
 [Angstrom] -> [Bohr] = [a.u.]                              1.88972613288564E+00
 [a.u.] = [Bohr] -> [Angstrom]                              5.29177208590000E-01
 [a.u.] -> [s]                                              2.41888432650478E-17
 [a.u.] -> [fs]                                             2.41888432650478E-02
 [a.u.] -> [J]                                              4.35974393937059E-18
 [a.u.] -> [N]                                              8.23872205491840E-08
 [a.u.] -> [K]                                              3.15774647902944E+05
 [a.u.] -> [kJ/mol]                                         2.62549961709828E+03
 [a.u.] -> [kcal/mol]                                       6.27509468713739E+02
 [a.u.] -> [Pa]                                             2.94210107994716E+13
 [a.u.] -> [bar]                                            2.94210107994716E+08
 [a.u.] -> [atm]                                            2.90362800883016E+08
 [a.u.] -> [eV]                                             2.72113838565563E+01
 [a.u.] -> [Hz]                                             6.57968392072181E+15
 [a.u.] -> [1/cm] (wave numbers)                            2.19474631370540E+05
 [a.u./Bohr**2] -> [1/cm]                                   5.14048714338585E+03
 

 CELL_TOP| Volume [angstrom^3]:                                       478243.423
 CELL_TOP| Vector a [angstrom    49.264     0.000     0.000    |a| =      49.264
 CELL_TOP| Vector b [angstrom     0.000    49.264     0.000    |b| =      49.264
 CELL_TOP| Vector c [angstrom     0.000     0.000   197.056    |c| =     197.056
 CELL_TOP| Angle (b,c), alpha [degree]:                                   90.000
 CELL_TOP| Angle (a,c), beta  [degree]:                                   90.000
 CELL_TOP| Angle (a,b), gamma [degree]:                                   90.000
 CELL_TOP| Numerically orthorhombic:                                         YES

 CELL_UC| Volume [angstrom^3]:                                           956.487
 CELL_UC| Vector a [angstrom]     9.853     0.000     0.000    |a| =       9.853
 CELL_UC| Vector b [angstrom]     0.000     9.853     0.000    |b| =       9.853
 CELL_UC| Vector c [angstrom]     0.000     0.000     9.853    |c| =       9.853
 CELL_UC| Angle (b,c), alpha [degree]:                                    90.000
 CELL_UC| Angle (a,c), beta  [degree]:                                    90.000
 CELL_UC| Angle (a,b), gamma [degree]:                                    90.000
 CELL_UC| Numerically orthorhombic:                                          YES
 
 GENERATE|  Preliminary Number of Bonds generated:                            64
 GENERATE|  Achieved consistency in connectivity generation.
 GENERATE|  Number of Bonds generated:                                        64
 GENERATE|  Preliminary Number of Bends generated:                            32
 GENERATE|  Number of Bends generated:                                        32
 GENERATE|  Number of UB generated:                                           32
 GENERATE|  Preliminary Number of Torsions generated:                          0

 CELL| Volume [angstrom^3]:                                           478243.423
 CELL| Vector a [angstrom]:      49.264     0.000     0.000    |a| =      49.264
 CELL| Vector b [angstrom]:       0.000    49.264     0.000    |b| =      49.264
 CELL| Vector c [angstrom]:       0.000     0.000   197.056    |c| =     197.056
 CELL| Angle (b,c), alpha [degree]:                                       90.000
 CELL| Angle (a,c), beta  [degree]:                                       90.000
 CELL| Angle (a,b), gamma [degree]:                                       90.000
 CELL| Numerically orthorhombic:                                             YES

 CELL_REF| Volume [angstrom^3]:                                       478243.423
 CELL_REF| Vector a [angstrom    49.264     0.000     0.000    |a| =      49.264
 CELL_REF| Vector b [angstrom     0.000    49.264     0.000    |b| =      49.264
 CELL_REF| Vector c [angstrom     0.000     0.000   197.056    |c| =     197.056
 CELL_REF| Angle (b,c), alpha [degree]:                                   90.000
 CELL_REF| Angle (a,c), beta  [degree]:                                   90.000
 CELL_REF| Angle (a,b), gamma [degree]:                                   90.000
 CELL_REF| Numerically orthorhombic:                                         YES

 *******************************************************************************
 *******************************************************************************
 **                                                                           **
 **     #####                         ##              ##                      **
 **    ##   ##            ##          ##              ##                      **
 **   ##     ##                       ##            ######                    **
 **   ##     ##  ##   ##  ##   #####  ##  ##   ####   ##    #####    #####    **
 **   ##     ##  ##   ##  ##  ##      ## ##   ##      ##   ##   ##  ##   ##   **
 **   ##  ## ##  ##   ##  ##  ##      ####     ###    ##   ######   ######    **
 **    ##  ###   ##   ##  ##  ##      ## ##      ##   ##   ##       ##        **
 **     #######   #####   ##   #####  ##  ##  ####    ##    #####   ##        **
 **           ##                                                    ##        **
 **                                                                           **
 **                                                ... make the atoms dance   **
 **                                                                           **
 **            Copyright (C) by CP2K developers group (2000 - 2020)           **
 **                                                                           **
 *******************************************************************************

 DFT| Spin restricted Kohn-Sham (RKS) calculation                            RKS
 DFT| Multiplicity                                                             1
 DFT| Number of spin states                                                    1
 DFT| Charge                                                                   0
 DFT| Self-interaction correction (SIC)                                       NO
 DFT| Cutoffs: density                                              1.000000E-10
 DFT|          gradient                                             1.000000E-10
 DFT|          tau                                                  1.000000E-10
 DFT|          cutoff_smoothing_range                               0.000000E+00
 DFT| XC density smoothing                                                  NONE
 DFT| XC derivatives                                                          PW
 FUNCTIONAL| ROUTINE=NEW
 FUNCTIONAL| PADE:
 FUNCTIONAL| S. Goedecker, M. Teter and J. Hutter, Phys. Rev. B 54, 1703 (1996) 

 QS| Method:                                                                 GPW
 QS| Density plane wave grid type                        NON-SPHERICAL FULLSPACE
 QS| Number of grid levels:                                                    4
 QS| Density cutoff [a.u.]:                                                150.0
 QS| Multi grid cutoff [a.u.]: 1) grid level                               150.0
 QS|                           2) grid level                                50.0
 QS|                           3) grid level                                16.7
 QS|                           4) grid level                                 5.6
 QS| Grid level progression factor:                                          3.0
 QS| Relative density cutoff [a.u.]:                                        20.0
 QS| Interaction thresholds: eps_pgf_orb:                                1.0E-05
 QS|                         eps_filter_matrix:                          0.0E+00
 QS|                         eps_core_charge:                            1.0E-12
 QS|                         eps_rho_gspace:                             1.0E-10
 QS|                         eps_rho_rspace:                             1.0E-10
 QS|                         eps_gvg_rspace:                             1.0E-05
 QS|                         eps_ppl:                                    1.0E-02
 QS|                         eps_ppnl:                                   1.0E-07


 ATOMIC KIND INFORMATION

  1. Atomic kind: O                                     Number of atoms:   16000

     Orbital Basis Set                                         SZV-MOLOPT-SR-GTH

       Number of orbital shell sets:                                           1
       Number of orbital shells:                                               2
       Number of primitive Cartesian functions:                                5
       Number of Cartesian basis functions:                                    4
       Number of spherical basis functions:                                    4
       Norm type:                                                              2

       Normalised Cartesian orbitals:

                        Set   Shell   Orbital            Exponent    Coefficient

                          1       1    2s               10.389228       0.396646
                                                         3.849621       0.208811
                                                         1.388401      -0.301641
                                                         0.496955      -0.274061
                                                         0.162492      -0.033677

                          1       2    3px              10.389228      -1.530415
                                                         3.849621      -1.371928
                                                         1.388401      -0.761951
                                                         0.496955      -0.253695
                                                         0.162492      -0.035541
                          1       2    3py              10.389228      -1.530415
                                                         3.849621      -1.371928
                                                         1.388401      -0.761951
                                                         0.496955      -0.253695
                                                         0.162492      -0.035541
                          1       2    3pz              10.389228      -1.530415
                                                         3.849621      -1.371928
                                                         1.388401      -0.761951
                                                         0.496955      -0.253695
                                                         0.162492      -0.035541

     GTH Potential information for                                   GTH-PADE-q6

       Description:                       Goedecker-Teter-Hutter pseudopotential
                                           Goedecker et al., PRB 54, 1703 (1996)
                                          Hartwigsen et al., PRB 58, 3641 (1998)
                                                      Krack, TCA 114, 145 (2005)

       Gaussian exponent of the core charge distribution:               8.154466
       Electronic configuration (s p d ...):                               2   4

       Parameters of the local part of the GTH pseudopotential:

                          rloc        C1          C2          C3          C4
                        0.247621  -16.580318    2.395701

       Parameters of the non-local part of the GTH pseudopotential:

                   l      r(l)      h(i,j,l)

                   0    0.221786   18.266917
                   1    0.256829

  2. Atomic kind: H                                     Number of atoms:   32000

     Orbital Basis Set                                         SZV-MOLOPT-SR-GTH

       Number of orbital shell sets:                                           1
       Number of orbital shells:                                               1
       Number of primitive Cartesian functions:                                5
       Number of Cartesian basis functions:                                    1
       Number of spherical basis functions:                                    1
       Norm type:                                                              2

       Normalised Cartesian orbitals:

                        Set   Shell   Orbital            Exponent    Coefficient

                          1       1    2s               10.068468      -0.133023
                                                         2.680223      -0.177618
                                                         0.791502      -0.258419
                                                         0.239116      -0.107525
                                                         0.082193      -0.014019

     GTH Potential information for                                   GTH-PADE-q1

       Description:                       Goedecker-Teter-Hutter pseudopotential
                                           Goedecker et al., PRB 54, 1703 (1996)
                                          Hartwigsen et al., PRB 58, 3641 (1998)
                                                      Krack, TCA 114, 145 (2005)

       Gaussian exponent of the core charge distribution:              12.500000
       Electronic configuration (s p d ...):                                   1

       Parameters of the local part of the GTH pseudopotential:

                          rloc        C1          C2          C3          C4
                        0.200000   -4.180237    0.725075


 TOTAL NUMBERS AND MAXIMUM NUMBERS

  Total number of            - Atomic kinds:                                   2
                             - Atoms:                                      48000
                             - Shell sets:                                 48000
                             - Shells:                                     64000
                             - Primitive Cartesian functions:             240000
                             - Cartesian basis functions:                  96000
                             - Spherical basis functions:                  96000

  Maximum angular momentum of- Orbital basis functions:                        1
                             - Local part of the GTH pseudopotential:          2
                             - Non-local part of the GTH pseudopotential:      0

 PW_GRID| Information for grid number                                          1
 PW_GRID| Grid distributed over                                    32 processors
 PW_GRID| Real space group dimensions                                    32    1
 PW_GRID| the grid is blocked:                                                NO
 PW_GRID| Cutoff [a.u.]                                                    150.0
 PW_GRID| spherical cutoff:                                                   NO
 PW_GRID|   Bounds   1           -262     262                Points:         525
 PW_GRID|   Bounds   2           -262     262                Points:         525
 PW_GRID|   Bounds   3          -1039    1039                Points:        2079
 PW_GRID| Volume element (a.u.^3)  0.5632E-02     Volume (a.u.^3)   3227346.6295
 PW_GRID| Grid span                                                    FULLSPACE
 PW_GRID|   Distribution                         Average         Max         Min
 PW_GRID|   G-Vectors                         17907011.7    17907225    17906700
 PW_GRID|   G-Rays                               34108.6       34109       34108
 PW_GRID|   Real Space Points                 17907011.7    18555075    17463600

 PW_GRID| Information for grid number                                          2
 PW_GRID| Number of the reference grid                                         1
 PW_GRID| Grid distributed over                                    32 processors
 PW_GRID| Real space group dimensions                                    32    1
 PW_GRID| the grid is blocked:                                                NO
 PW_GRID| Cutoff [a.u.]                                                     50.0
 PW_GRID| spherical cutoff:                                                   NO
 PW_GRID|   Bounds   1           -148     148                Points:         297
 PW_GRID|   Bounds   2           -148     148                Points:         297
 PW_GRID|   Bounds   3           -594     593                Points:        1188
 PW_GRID| Volume element (a.u.^3)  0.3080E-01     Volume (a.u.^3)   3227346.6295
 PW_GRID| Grid span                                                    FULLSPACE
 PW_GRID|   Distribution                         Average         Max         Min
 PW_GRID|   G-Vectors                          3274759.1     3276504     3272940
 PW_GRID|   G-Rays                               11026.1       11032       11020
 PW_GRID|   Real Space Points                  3274759.1     3528360     3175524

 PW_GRID| Information for grid number                                          3
 PW_GRID| Number of the reference grid                                         1
 PW_GRID| Grid distributed over                                    32 processors
 PW_GRID| Real space group dimensions                                    32    1
 PW_GRID| the grid is blocked:                                                NO
 PW_GRID| Cutoff [a.u.]                                                     16.7
 PW_GRID| spherical cutoff:                                                   NO
 PW_GRID|   Bounds   1            -87      87                Points:         175
 PW_GRID|   Bounds   2            -87      87                Points:         175
 PW_GRID|   Bounds   3           -346     346                Points:         693
 PW_GRID| Volume element (a.u.^3)  0.1521         Volume (a.u.^3)   3227346.6295
 PW_GRID| Grid span                                                    FULLSPACE
 PW_GRID|   Distribution                         Average         Max         Min
 PW_GRID|   G-Vectors                           663222.7      664825      662025
 PW_GRID|   G-Rays                                3789.8        3799        3783
 PW_GRID|   Real Space Points                   663222.7      727650      606375

 PW_GRID| Information for grid number                                          4
 PW_GRID| Number of the reference grid                                         1
 PW_GRID| Grid distributed over                                    32 processors
 PW_GRID| Real space group dimensions                                    32    1
 PW_GRID| the grid is blocked:                                                NO
 PW_GRID| Cutoff [a.u.]                                                      5.6
 PW_GRID| spherical cutoff:                                                   NO
 PW_GRID|   Bounds   1            -49      49                Points:          99
 PW_GRID|   Bounds   2            -49      49                Points:          99
 PW_GRID|   Bounds   3           -198     197                Points:         396
 PW_GRID| Volume element (a.u.^3)  0.8315         Volume (a.u.^3)   3227346.6295
 PW_GRID| Grid span                                                    FULLSPACE
 PW_GRID|   Distribution                         Average         Max         Min
 PW_GRID|   G-Vectors                           121287.4      121869      120681
 PW_GRID|   G-Rays                                1225.1        1231        1219
 PW_GRID|   Real Space Points                   121287.4      156816      117612

 POISSON| Solver                                                        PERIODIC
 POISSON| Periodicity                                                        XYZ

 RS_GRID| Information for grid number                                          1
 RS_GRID|   Bounds   1           -262     262                Points:         525
 RS_GRID|   Bounds   2           -262     262                Points:         525
 RS_GRID|   Bounds   3          -1039    1039                Points:        2079
 RS_GRID| Real space distribution over                                  2 groups
 RS_GRID| Real space distribution along direction                              2
 RS_GRID| Border size                                                         19
 RS_GRID| Real space distribution over                                 16 groups
 RS_GRID| Real space distribution along direction                              3
 RS_GRID| Border size                                                         19
 RS_GRID|   Distribution                         Average         Max         Min
 RS_GRID|   Planes                                 300.5         301         300
 RS_GRID|   Distribution                         Average         Max         Min
 RS_GRID|   Planes                                 167.9         168         167

 RS_GRID| Information for grid number                                          2
 RS_GRID|   Bounds   1           -148     148                Points:         297
 RS_GRID|   Bounds   2           -148     148                Points:         297
 RS_GRID|   Bounds   3           -594     593                Points:        1188
 RS_GRID| Real space distribution over                                  2 groups
 RS_GRID| Real space distribution along direction                              2
 RS_GRID| Border size                                                         19
 RS_GRID| Real space distribution over                                 16 groups
 RS_GRID| Real space distribution along direction                              3
 RS_GRID| Border size                                                         19
 RS_GRID|   Distribution                         Average         Max         Min
 RS_GRID|   Planes                                 186.5         187         186
 RS_GRID|   Distribution                         Average         Max         Min
 RS_GRID|   Planes                                 112.2         113         112

 RS_GRID| Information for grid number                                          3
 RS_GRID|   Bounds   1            -87      87                Points:         175
 RS_GRID|   Bounds   2            -87      87                Points:         175
 RS_GRID|   Bounds   3           -346     346                Points:         693
 RS_GRID| Real space distribution over                                  2 groups
 RS_GRID| Real space distribution along direction                              2
 RS_GRID| Border size                                                         20
 RS_GRID| Real space distribution over                                 16 groups
 RS_GRID| Real space distribution along direction                              3
 RS_GRID| Border size                                                         20
 RS_GRID|   Distribution                         Average         Max         Min
 RS_GRID|   Planes                                 127.5         128         127
 RS_GRID|   Distribution                         Average         Max         Min
 RS_GRID|   Planes                                  83.3          84          83

 RS_GRID| Information for grid number                                          4
 RS_GRID|   Bounds   1            -49      49                Points:          99
 RS_GRID|   Bounds   2            -49      49                Points:          99
 RS_GRID|   Bounds   3           -198     197                Points:         396
 RS_GRID| Real space distribution over                                  2 groups
 RS_GRID| Real space distribution along direction                              2
 RS_GRID| Border size                                                         20
 RS_GRID| Real space distribution over                                 16 groups
 RS_GRID| Real space distribution along direction                              3
 RS_GRID| Border size                                                         20
 RS_GRID|   Distribution                         Average         Max         Min
 RS_GRID|   Planes                                  89.5          90          89
 RS_GRID|   Distribution                         Average         Max         Min
 RS_GRID|   Planes                                  64.8          65          64

 ------------------------------ Linear scaling SCF -----------------------------
 eps_scf:                                                              0.100E-04
 eps_filter:                                                           0.100E-04
 mixing_fraction:                                                      0.450E+00
 max_scf:                                                                      1
 fixed chemical potential (mu)                                                 F
 has unit metric:                                                              F
 Computing inv(S):                                                             T
 Computing sqrt(S):                                                            T
 Computing S preconditioner                                                    T
 S sqrt method:                                                     NEWTONSCHULZ
 S sqrt order:                                                                 3
 Extrapolation order:                                                          4
 Use single precision matrices                                                 F
 S preconditioner type                                                 MOLECULAR
 Polarized Atomic Orbitals (PAO)                                               F
 Purification method                                              sign iteration
 Sign method:                                                      newton schulz
 Sign order:                                                                   2
 Symmetric sign calculation:                                                   T
 Cluster type                                                          MOLECULAR
 Computing Chebyshev                                                       FALSE
 Using PAO                                                                     F
 -------------------------------------------------------------------------------

 
     Lanczos converged:  T threshold:   0.100E-02
     Est. extremal eigenvalues:    0.192E+01   0.330E+00
     Est. condition number :    0.582E+01
 
 Order=           3
     NS sqrt iter    1 0.00006250   0.511E+00       0.115        7.505
     NS sqrt iter    2 0.00006250   0.198E+00       0.050       17.216
     NS sqrt iter    3 0.00006250   0.121E-01       0.050       17.335
     NS sqrt iter    4 0.00006250   0.378E-05       0.045       14.363
     Symmetrizing Results
     Final NS sqrt iter    4 0.00006250   0.235E-10

 
     Lanczos converged:  T threshold:   0.100E-02
     Est. extremal eigenvalues:    0.164E+01   0.622E+00
     Est. condition number :    0.264E+01
 
 Order=           3
     NS sqrt iter    1 0.00712891   0.260E+00       0.932     1675.234
     NS sqrt iter    2 0.00568555   0.205E-01       1.498     2288.082
     NS sqrt iter    3 0.00565039   0.467E-04       0.647      976.833
     Symmetrizing Results
     Final NS sqrt iter    3 0.00565234   0.154E-05



 Guess for atomic kind: O

 Electronic structure
    Total number of core electrons                                          2.00
    Total number of valence electrons                                       6.00
    Total number of electrons                                               8.00
    Multiplicity                                                   not specified
    S   [  2.00] 2.00
    P      4.00
 

 *******************************************************************************
                  Iteration          Convergence                     Energy [au]
 *******************************************************************************
                          1         0.00000                     -15.707921728522

 Energy components [Hartree]           Total Energy ::          -15.707921728522
                                        Band Energy ::           -2.136736949465
                                     Kinetic Energy ::           11.912575941791
                                   Potential Energy ::          -27.620497670312
                                      Virial (-V/T) ::            2.318599923751
                                        Core Energy ::          -26.283592465485
                                          XC Energy ::           -3.178950412391
                                     Coulomb Energy ::           13.754621149354
                       Total Pseudopotential Energy ::          -38.230330262842
                       Local Pseudopotential Energy ::          -39.524789846979
                    Nonlocal Pseudopotential Energy ::            1.294459584137
                                        Confinement ::            0.341618555667

 Orbital energies  State     L     Occupation   Energy[a.u.]          Energy[eV]

                       1     0          2.000      -0.709155          -19.297083
 
                       1     1          4.000      -0.179607           -4.887351
 

 Total Electron Density at R=0:                                         0.000031

 Guess for atomic kind: H

 Electronic structure
    Total number of core electrons                                          0.00
    Total number of valence electrons                                       1.00
    Total number of electrons                                               1.00
    Multiplicity                                                   not specified
    S      1.00
 

 *******************************************************************************
                  Iteration          Convergence                     Energy [au]
 *******************************************************************************
                          1         0.00000                      -0.372474116344

 Energy components [Hartree]           Total Energy ::           -0.372474116344
                                        Band Energy ::           -0.184689713228
                                     Kinetic Energy ::            0.795946116619
                                   Potential Energy ::           -1.168420232963
                                      Virial (-V/T) ::            1.467963984706
                                        Core Energy ::           -0.452545141516
                                          XC Energy ::           -0.314416247311
                                     Coulomb Energy ::            0.394487272483
                       Total Pseudopotential Energy ::           -1.259976600556
                       Local Pseudopotential Energy ::           -1.259976600556
                    Nonlocal Pseudopotential Energy ::            0.000000000000
                                        Confinement ::            0.114853424211

 Orbital energies  State     L     Occupation   Energy[a.u.]          Energy[eV]

                       1     0          1.000      -0.184690           -5.025663
 

 Total Electron Density at R=0:                                         0.476934
 Re-scaling the density matrix to get the right number of electrons
                  # Electrons              Trace(P)               Scaling factor
                       128000            128000.000                        1.000
 Energy with the initial guess:   -271083.035774880

 
     NS sign iter    1 0.00545801   0.911E+01       0.702     1242.180
     NS sign iter    2 0.00546191   0.427E+01       0.568     1940.457
     NS sign iter    3 0.00591406   0.211E+01       0.635     2170.099
     NS sign iter    4 0.00703516   0.106E+01       0.802     2200.863
     NS sign iter    5 0.00926953   0.470E+00       0.754     3326.065
     NS sign iter    6 0.01244336   0.155E+00       1.083     3876.681
     NS sign iter    7 0.01277930   0.289E-01       1.270     4828.154
     NS sign iter    8 0.01269619   0.158E-02       1.363     3539.885
     Final NS sign iter   8 0.01269619   0.172E-04

 Deviation from idempotency:       0.005465593205
 Energy Tr(DK)  -28164.529035015337
 Density matrix:  iter, mu, trace error:  1   0.070000000     0.001026308
 
 SCF     1   -273149.214377805   -273149.214377805   26.893760
 
 SCF not converged! 

 !-----------------------------------------------------------------------------!
                           Hirshfeld Charges

  #Atom  Element  Kind  Ref Charge     Population                    Net charge
      1       O      1       6.000          7.342                        -1.342
      2       H      2       1.000          0.330                         0.670
      3       H      2       1.000          0.327                         0.673
      4       O      1       6.000          7.350                        -1.350
      5       H      2       1.000          0.328                         0.672
      6       H      2       1.000          0.330                         0.670
      7       O      1       6.000          7.340                        -1.340
      8       H      2       1.000          0.328                         0.672
      9       H      2       1.000          0.328                         0.672
     10       O      1       6.000          7.343                        -1.343
     11       H      2       1.000          0.328                         0.672
     12       H      2       1.000          0.328                         0.672
     13       O      1       6.000          7.331                        -1.331
     14       H      2       1.000          0.330                         0.670
     15       H      2       1.000          0.330                         0.670
     16       O      1       6.000          7.351                        -1.351
     17       H      2       1.000          0.328                         0.672
     18       H      2       1.000          0.327                         0.673
     19       O      1       6.000          7.327                        -1.327
     20       H      2       1.000          0.327                         0.673
     21       H      2       1.000          0.329                         0.671
     22       O      1       6.000          7.337                        -1.337
     23       H      2       1.000          0.329                         0.671
     24       H      2       1.000          0.328                         0.672
     25       O      1       6.000          7.356                        -1.356
     26       H      2       1.000          0.329                         0.671
     27       H      2       1.000          0.329                         0.671
     28       O      1       6.000          7.346                        -1.346
     29       H      2       1.000          0.328                         0.672
     30       H      2       1.000          0.329                         0.671
     31       O      1       6.000          7.343                        -1.343
     32       H      2       1.000          0.330                         0.670
     33       H      2       1.000          0.329                         0.671
     34       O      1       6.000          7.376                        -1.376
     35       H      2       1.000          0.328                         0.672
     36       H      2       1.000          0.328                         0.672
     37       O      1       6.000          7.344                        -1.344
     38       H      2       1.000          0.331                         0.669
     39       H      2       1.000          0.328                         0.672
     40       O      1       6.000          7.344                        -1.344
     41       H      2       1.000          0.327                         0.673
     42       H      2       1.000          0.327                         0.673
     43       O      1       6.000          7.355                        -1.355
     44       H      2       1.000          0.329                         0.671
     45       H      2       1.000          0.330                         0.670
     46       O      1       6.000          7.328                        -1.328
     47       H      2       1.000          0.327                         0.673
     48       H      2       1.000          0.330                         0.670
     49       O      1       6.000          7.328                        -1.328
     50       H      2       1.000          0.328                         0.672
     51       H      2       1.000          0.329                         0.671
     52       O      1       6.000          7.361                        -1.361
     53       H      2       1.000          0.329                         0.671
     54       H      2       1.000          0.329                         0.671
     55       O      1       6.000          7.340                        -1.340
     56       H      2       1.000          0.328                         0.672
     57       H      2       1.000          0.329                         0.671
     58       O      1       6.000          7.341                        -1.341
     59       H      2       1.000          0.329                         0.671
     60       H      2       1.000          0.330                         0.670
     61       O      1       6.000          7.336                        -1.336
     62       H      2       1.000          0.327                         0.673
     63       H      2       1.000          0.329                         0.671
     64       O      1       6.000          7.352                        -1.352
     65       H      2       1.000          0.329                         0.671
     66       H      2       1.000          0.328                         0.672
     67       O      1       6.000          7.340                        -1.340
     68       H      2       1.000          0.329                         0.671
     69       H      2       1.000          0.327                         0.673
     70       O      1       6.000          7.345                        -1.345
     71       H      2       1.000          0.328                         0.672
     72       H      2       1.000          0.329                         0.671
     73       O      1       6.000          7.339                        -1.339
     74       H      2       1.000          0.329                         0.671
     75       H      2       1.000          0.328                         0.672
     76       O      1       6.000          7.340                        -1.340
     77       H      2       1.000          0.328                         0.672
     78       H      2       1.000          0.329                         0.671
     79       O      1       6.000          7.342                        -1.342
     80       H      2       1.000          0.327                         0.673
     81       H      2       1.000          0.329                         0.671
     82       O      1       6.000          7.336                        -1.336
     83       H      2       1.000          0.330                         0.670
     84       H      2       1.000          0.329                         0.671
     85       O      1       6.000          7.323                        -1.323
     86       H      2       1.000          0.327                         0.673
     87       H      2       1.000          0.330                         0.670
     88       O      1       6.000          7.347                        -1.347
     89       H      2       1.000          0.327                         0.673
     90       H      2       1.000          0.328                         0.672
     91       O      1       6.000          7.340                        -1.340
     92       H      2       1.000          0.328                         0.672
     93       H      2       1.000          0.330                         0.670
     94       O      1       6.000          7.349                        -1.349
     95       H      2       1.000          0.328                         0.672
     96       H      2       1.000          0.328                         0.672
     97       O      1       6.000          7.342                        -1.342
     98       H      2       1.000          0.330                         0.670
     99       H      2       1.000          0.327                         0.673
    100       O      1       6.000          7.350                        -1.350
    101       H      2       1.000          0.328                         0.672
    102       H      2       1.000          0.330                         0.670
    103       O      1       6.000          7.340                        -1.340
    104       H      2       1.000          0.328                         0.672
    105       H      2       1.000          0.328                         0.672
    106       O      1       6.000          7.343                        -1.343
    107       H      2       1.000          0.328                         0.672
    108       H      2       1.000          0.328                         0.672
    109       O      1       6.000          7.331                        -1.331
    110       H      2       1.000          0.330                         0.670
    111       H      2       1.000          0.330                         0.670
    112       O      1       6.000          7.351                        -1.351
    113       H      2       1.000          0.328                         0.672
    114       H      2       1.000          0.327                         0.673
    115       O      1       6.000          7.327                        -1.327
    116       H      2       1.000          0.327                         0.673
    117       H      2       1.000          0.329                         0.671
    118       O      1       6.000          7.337                        -1.337
    119       H      2       1.000          0.329                         0.671
    120       H      2       1.000          0.328                         0.672
    121       O      1       6.000          7.356                        -1.356
    122       H      2       1.000          0.329                         0.671
    123       H      2       1.000          0.329                         0.671
    124       O      1       6.000          7.346                        -1.346
    125       H      2       1.000          0.328                         0.672
    126       H      2       1.000          0.329                         0.671
    127       O      1       6.000          7.343                        -1.343
    128       H      2       1.000          0.330                         0.670
    129       H      2       1.000          0.329                         0.671
    130       O      1       6.000          7.376                        -1.376
    131       H      2       1.000          0.328                         0.672
    132       H      2       1.000          0.328                         0.672
    133       O      1       6.000          7.344                        -1.344
    134       H      2       1.000          0.331                         0.669
    135       H      2       1.000          0.328                         0.672
    136       O      1       6.000          7.344                        -1.344
    137       H      2       1.000          0.327                         0.673
    138       H      2       1.000          0.327                         0.673
    139       O      1       6.000          7.355                        -1.355
    140       H      2       1.000          0.329                         0.671
    141       H      2       1.000          0.330                         0.670
    142       O      1       6.000          7.328                        -1.328
    143       H      2       1.000          0.327                         0.673
    144       H      2       1.000          0.330                         0.670
    145       O      1       6.000          7.328                        -1.328
    146       H      2       1.000          0.328                         0.672
    147       H      2       1.000          0.329                         0.671
    148       O      1       6.000          7.361                        -1.361
    149       H      2       1.000          0.329                         0.671
    150       H      2       1.000          0.329                         0.671
    151       O      1       6.000          7.340                        -1.340
    152       H      2       1.000          0.328                         0.672
    153       H      2       1.000          0.329                         0.671
    154       O      1       6.000          7.341                        -1.341
    155       H      2       1.000          0.329                         0.671
    156       H      2       1.000          0.330                         0.670
    157       O      1       6.000          7.336                        -1.336
    158       H      2       1.000          0.327                         0.673
    159       H      2       1.000          0.329                         0.671
    160       O      1       6.000          7.352                        -1.352
    161       H      2       1.000          0.329                         0.671
    162       H      2       1.000          0.328                         0.672
    163       O      1       6.000          7.340                        -1.340
    164       H      2       1.000          0.329                         0.671
    165       H      2       1.000          0.327                         0.673
    166       O      1       6.000          7.345                        -1.345
    167       H      2       1.000          0.328                         0.672
    168       H      2       1.000          0.329                         0.671
    169       O      1       6.000          7.339                        -1.339
    170       H      2       1.000          0.329                         0.671
    171       H      2       1.000          0.328                         0.672
    172       O      1       6.000          7.340                        -1.340
    173       H      2       1.000          0.328                         0.672
    174       H      2       1.000          0.329                         0.671
    175       O      1       6.000          7.342                        -1.342
    176       H      2       1.000          0.327                         0.673
    177       H      2       1.000          0.329                         0.671
    178       O      1       6.000          7.336                        -1.336
    179       H      2       1.000          0.330                         0.670
    180       H      2       1.000          0.329                         0.671
    181       O      1       6.000          7.323                        -1.323
    182       H      2       1.000          0.327                         0.673
    183       H      2       1.000          0.330                         0.670
    184       O      1       6.000          7.347                        -1.347
    185       H      2       1.000          0.327                         0.673
    186       H      2       1.000          0.328                         0.672
    187       O      1       6.000          7.340                        -1.340
    188       H      2       1.000          0.328                         0.672
    189       H      2       1.000          0.330                         0.670
    190       O      1       6.000          7.349                        -1.349
    191       H      2       1.000          0.328                         0.672
    192       H      2       1.000          0.328                         0.672
    193       O      1       6.000          7.342                        -1.342
    194       H      2       1.000          0.330                         0.670
    195       H      2       1.000          0.327                         0.673
    196       O      1       6.000          7.350                        -1.350
    197       H      2       1.000          0.328                         0.672
    198       H      2       1.000          0.330                         0.670
    199       O      1       6.000          7.340                        -1.340
    200       H      2       1.000          0.328                         0.672
    201       H      2       1.000          0.328                         0.672
    202       O      1       6.000          7.343                        -1.343
    203       H      2       1.000          0.328                         0.672
    204       H      2       1.000          0.328                         0.672
    205       O      1       6.000          7.331                        -1.331
    206       H      2       1.000          0.330                         0.670
    207       H      2       1.000          0.330                         0.670
    208       O      1       6.000          7.351                        -1.351
    209       H      2       1.000          0.328                         0.672
    210       H      2       1.000          0.327                         0.673
    211       O      1       6.000          7.327                        -1.327
    212       H      2       1.000          0.327                         0.673
    213       H      2       1.000          0.329                         0.671
    214       O      1       6.000          7.337                        -1.337
    215       H      2       1.000          0.329                         0.671
    216       H      2       1.000          0.328                         0.672
    217       O      1       6.000          7.356                        -1.356
    218       H      2       1.000          0.329                         0.671
    219       H      2       1.000          0.329                         0.671
    220       O      1       6.000          7.346                        -1.346
    221       H      2       1.000          0.328                         0.672
    222       H      2       1.000          0.329                         0.671
    223       O      1       6.000          7.343                        -1.343
    224       H      2       1.000          0.330                         0.670
    225       H      2       1.000          0.329                         0.671
    226       O      1       6.000          7.376                        -1.376
    227       H      2       1.000          0.328                         0.672
    228       H      2       1.000          0.328                         0.672
    229       O      1       6.000          7.344                        -1.344
    230       H      2       1.000          0.331                         0.669
    231       H      2       1.000          0.328                         0.672
    232       O      1       6.000          7.344                        -1.344
    233       H      2       1.000          0.327                         0.673
    234       H      2       1.000          0.327                         0.673
    235       O      1       6.000          7.355                        -1.355
    236       H      2       1.000          0.329                         0.671
    237       H      2       1.000          0.330                         0.670
    238       O      1       6.000          7.328                        -1.328
    239       H      2       1.000          0.327                         0.673
    240       H      2       1.000          0.330                         0.670
    241       O      1       6.000          7.328                        -1.328
    242       H      2       1.000          0.328                         0.672
    243       H      2       1.000          0.329                         0.671
    244       O      1       6.000          7.361                        -1.361
    245       H      2       1.000          0.329                         0.671
    246       H      2       1.000          0.329                         0.671
    247       O      1       6.000          7.340                        -1.340
    248       H      2       1.000          0.328                         0.672
    249       H      2       1.000          0.329                         0.671
    250       O      1       6.000          7.341                        -1.341
    251       H      2       1.000          0.329                         0.671
    252       H      2       1.000          0.330                         0.670
    253       O      1       6.000          7.336                        -1.336
    254       H      2       1.000          0.327                         0.673
    255       H      2       1.000          0.329                         0.671
    256       O      1       6.000          7.352                        -1.352
    257       H      2       1.000          0.329                         0.671
    258       H      2       1.000          0.328                         0.672
    259       O      1       6.000          7.340                        -1.340
    260       H      2       1.000          0.329                         0.671
    261       H      2       1.000          0.327                         0.673
    262       O      1       6.000          7.345                        -1.345
    263       H      2       1.000          0.328                         0.672
    264       H      2       1.000          0.329                         0.671
    265       O      1       6.000          7.339                        -1.339
    266       H      2       1.000          0.329                         0.671
    267       H      2       1.000          0.328                         0.672
    268       O      1       6.000          7.340                        -1.340
    269       H      2       1.000          0.328                         0.672
    270       H      2       1.000          0.329                         0.671
    271       O      1       6.000          7.342                        -1.342
    272       H      2       1.000          0.327                         0.673
    273       H      2       1.000          0.329                         0.671
    274       O      1       6.000          7.336                        -1.336
    275       H      2       1.000          0.330                         0.670
    276       H      2       1.000          0.329                         0.671
    277       O      1       6.000          7.323                        -1.323
    278       H      2       1.000          0.327                         0.673
    279       H      2       1.000          0.330                         0.670
    280       O      1       6.000          7.347                        -1.347
    281       H      2       1.000          0.327                         0.673
    282       H      2       1.000          0.328                         0.672
    283       O      1       6.000          7.340                        -1.340
    284       H      2       1.000          0.328                         0.672
    285       H      2       1.000          0.330                         0.670
    286       O      1       6.000          7.349                        -1.349
    287       H      2       1.000          0.328                         0.672
    288       H      2       1.000          0.328                         0.672
    289       O      1       6.000          7.342                        -1.342
    290       H      2       1.000          0.330                         0.670
    291       H      2       1.000          0.327                         0.673
    292       O      1       6.000          7.350                        -1.350
    293       H      2       1.000          0.328                         0.672
    294       H      2       1.000          0.330                         0.670
    295       O      1       6.000          7.340                        -1.340
    296       H      2       1.000          0.328                         0.672
    297       H      2       1.000          0.328                         0.672
    298       O      1       6.000          7.343                        -1.343
    299       H      2       1.000          0.328                         0.672
    300       H      2       1.000          0.328                         0.672
    301       O      1       6.000          7.331                        -1.331
    302       H      2       1.000          0.330                         0.670
    303       H      2       1.000          0.330                         0.670
    304       O      1       6.000          7.351                        -1.351
    305       H      2       1.000          0.328                         0.672
    306       H      2       1.000          0.327                         0.673
    307       O      1       6.000          7.327                        -1.327
    308       H      2       1.000          0.327                         0.673
    309       H      2       1.000          0.329                         0.671
    310       O      1       6.000          7.337                        -1.337
    311       H      2       1.000          0.329                         0.671
    312       H      2       1.000          0.328                         0.672
    313       O      1       6.000          7.356                        -1.356
    314       H      2       1.000          0.329                         0.671
    315       H      2       1.000          0.329                         0.671
    316       O      1       6.000          7.346                        -1.346
    317       H      2       1.000          0.328                         0.672
    318       H      2       1.000          0.329                         0.671
    319       O      1       6.000          7.343                        -1.343
    320       H      2       1.000          0.330                         0.670
    321       H      2       1.000          0.329                         0.671
    322       O      1       6.000          7.376                        -1.376
    323       H      2       1.000          0.328                         0.672
    324       H      2       1.000          0.328                         0.672
    325       O      1       6.000          7.344                        -1.344
    326       H      2       1.000          0.331                         0.669
    327       H      2       1.000          0.328                         0.672
    328       O      1       6.000          7.344                        -1.344
    329       H      2       1.000          0.327                         0.673
    330       H      2       1.000          0.327                         0.673
    331       O      1       6.000          7.355                        -1.355
    332       H      2       1.000          0.329                         0.671
    333       H      2       1.000          0.330                         0.670
    334       O      1       6.000          7.328                        -1.328
    335       H      2       1.000          0.327                         0.673
    336       H      2       1.000          0.330                         0.670
    337       O      1       6.000          7.328                        -1.328
    338       H      2       1.000          0.328                         0.672
    339       H      2       1.000          0.329                         0.671
    340       O      1       6.000          7.361                        -1.361
    341       H      2       1.000          0.329                         0.671
    342       H      2       1.000          0.329                         0.671
    343       O      1       6.000          7.340                        -1.340
    344       H      2       1.000          0.328                         0.672
    345       H      2       1.000          0.329                         0.671
    346       O      1       6.000          7.341                        -1.341
    347       H      2       1.000          0.329                         0.671
    348       H      2       1.000          0.330                         0.670
    349       O      1       6.000          7.336                        -1.336
    350       H      2       1.000          0.327                         0.673
    351       H      2       1.000          0.329                         0.671
    352       O      1       6.000          7.352                        -1.352
    353       H      2       1.000          0.329                         0.671
    354       H      2       1.000          0.328                         0.672
    355       O      1       6.000          7.340                        -1.340
    356       H      2       1.000          0.329                         0.671
    357       H      2       1.000          0.327                         0.673
    358       O      1       6.000          7.345                        -1.345
    359       H      2       1.000          0.328                         0.672
    360       H      2       1.000          0.329                         0.671
    361       O      1       6.000          7.339                        -1.339
    362       H      2       1.000          0.329                         0.671
    363       H      2       1.000          0.328                         0.672
    364       O      1       6.000          7.340                        -1.340
    365       H      2       1.000          0.328                         0.672
    366       H      2       1.000          0.329                         0.671
    367       O      1       6.000          7.342                        -1.342
    368       H      2       1.000          0.327                         0.673
    369       H      2       1.000          0.329                         0.671
    370       O      1       6.000          7.336                        -1.336
    371       H      2       1.000          0.330                         0.670
    372       H      2       1.000          0.329                         0.671
    373       O      1       6.000          7.323                        -1.323
    374       H      2       1.000          0.327                         0.673
    375       H      2       1.000          0.330                         0.670
    376       O      1       6.000          7.347                        -1.347
    377       H      2       1.000          0.327                         0.673
    378       H      2       1.000          0.328                         0.672
    379       O      1       6.000          7.340                        -1.340
    380       H      2       1.000          0.328                         0.672
    381       H      2       1.000          0.330                         0.670
    382       O      1       6.000          7.349                        -1.349
    383       H      2       1.000          0.328                         0.672
    384       H      2       1.000          0.328                         0.672
    385       O      1       6.000          7.342                        -1.342
    386       H      2       1.000          0.330                         0.670
    387       H      2       1.000          0.327                         0.673
    388       O      1       6.000          7.350                        -1.350
    389       H      2       1.000          0.328                         0.672
    390       H      2       1.000          0.330                         0.670
    391       O      1       6.000          7.340                        -1.340
    392       H      2       1.000          0.328                         0.672
    393       H      2       1.000          0.328                         0.672
    394       O      1       6.000          7.343                        -1.343
    395       H      2       1.000          0.328                         0.672
    396       H      2       1.000          0.328                         0.672
    397       O      1       6.000          7.331                        -1.331
    398       H      2       1.000          0.330                         0.670
    399       H      2       1.000          0.330                         0.670
    400       O      1       6.000          7.351                        -1.351
    401       H      2       1.000          0.328                         0.672
    402       H      2       1.000          0.327                         0.673
    403       O      1       6.000          7.327                        -1.327
    404       H      2       1.000          0.327                         0.673
    405       H      2       1.000          0.329                         0.671
    406       O      1       6.000          7.337                        -1.337
    407       H      2       1.000          0.329                         0.671
    408       H      2       1.000          0.328                         0.672
    409       O      1       6.000          7.356                        -1.356
    410       H      2       1.000          0.329                         0.671
    411       H      2       1.000          0.329                         0.671
    412       O      1       6.000          7.346                        -1.346
    413       H      2       1.000          0.328                         0.672
    414       H      2       1.000          0.329                         0.671
    415       O      1       6.000          7.343                        -1.343
    416       H      2       1.000          0.330                         0.670
    417       H      2       1.000          0.329                         0.671
    418       O      1       6.000          7.376                        -1.376
    419       H      2       1.000          0.328                         0.672
    420       H      2       1.000          0.328                         0.672
    421       O      1       6.000          7.344                        -1.344
    422       H      2       1.000          0.331                         0.669
    423       H      2       1.000          0.328                         0.672
    424       O      1       6.000          7.344                        -1.344
    425       H      2       1.000          0.327                         0.673
    426       H      2       1.000          0.327                         0.673
    427       O      1       6.000          7.355                        -1.355
    428       H      2       1.000          0.329                         0.671
    429       H      2       1.000          0.330                         0.670
    430       O      1       6.000          7.328                        -1.328
    431       H      2       1.000          0.327                         0.673
    432       H      2       1.000          0.330                         0.670
    433       O      1       6.000          7.328                        -1.328
    434       H      2       1.000          0.328                         0.672
    435       H      2       1.000          0.329                         0.671
    436       O      1       6.000          7.361                        -1.361
    437       H      2       1.000          0.329                         0.671
    438       H      2       1.000          0.329                         0.671
    439       O      1       6.000          7.340                        -1.340
    440       H      2       1.000          0.328                         0.672
    441       H      2       1.000          0.329                         0.671
    442       O      1       6.000          7.341                        -1.341
    443       H      2       1.000          0.329                         0.671
    444       H      2       1.000          0.330                         0.670
    445       O      1       6.000          7.336                        -1.336
    446       H      2       1.000          0.327                         0.673
    447       H      2       1.000          0.329                         0.671
    448       O      1       6.000          7.352                        -1.352
    449       H      2       1.000          0.329                         0.671
    450       H      2       1.000          0.328                         0.672
    451       O      1       6.000          7.340                        -1.340
    452       H      2       1.000          0.329                         0.671
    453       H      2       1.000          0.327                         0.673
    454       O      1       6.000          7.345                        -1.345
    455       H      2       1.000          0.328                         0.672
    456       H      2       1.000          0.329                         0.671
    457       O      1       6.000          7.339                        -1.339
    458       H      2       1.000          0.329                         0.671
    459       H      2       1.000          0.328                         0.672
    460       O      1       6.000          7.340                        -1.340
    461       H      2       1.000          0.328                         0.672
    462       H      2       1.000          0.329                         0.671
    463       O      1       6.000          7.342                        -1.342
    464       H      2       1.000          0.327                         0.673
    465       H      2       1.000          0.329                         0.671
    466       O      1       6.000          7.336                        -1.336
    467       H      2       1.000          0.330                         0.670
    468       H      2       1.000          0.329                         0.671
    469       O      1       6.000          7.323                        -1.323
    470       H      2       1.000          0.327                         0.673
    471       H      2       1.000          0.330                         0.670
    472       O      1       6.000          7.347                        -1.347
    473       H      2       1.000          0.327                         0.673
    474       H      2       1.000          0.328                         0.672
    475       O      1       6.000          7.340                        -1.340
    476       H      2       1.000          0.328                         0.672
    477       H      2       1.000          0.330                         0.670
    478       O      1       6.000          7.349                        -1.349
    479       H      2       1.000          0.328                         0.672
    480       H      2       1.000          0.328                         0.672
    481       O      1       6.000          7.342                        -1.342
    482       H      2       1.000          0.330                         0.670
    483       H      2       1.000          0.327                         0.673
    484       O      1       6.000          7.350                        -1.350
    485       H      2       1.000          0.328                         0.672
    486       H      2       1.000          0.330                         0.670
    487       O      1       6.000          7.340                        -1.340
    488       H      2       1.000          0.328                         0.672
    489       H      2       1.000          0.328                         0.672
    490       O      1       6.000          7.343                        -1.343
    491       H      2       1.000          0.328                         0.672
    492       H      2       1.000          0.328                         0.672
    493       O      1       6.000          7.331                        -1.331
    494       H      2       1.000          0.330                         0.670
    495       H      2       1.000          0.330                         0.670
    496       O      1       6.000          7.351                        -1.351
    497       H      2       1.000          0.328                         0.672
    498       H      2       1.000          0.327                         0.673
    499       O      1       6.000          7.327                        -1.327
    500       H      2       1.000          0.327                         0.673
    501       H      2       1.000          0.329                         0.671
    502       O      1       6.000          7.337                        -1.337
    503       H      2       1.000          0.329                         0.671
    504       H      2       1.000          0.328                         0.672
    505       O      1       6.000          7.356                        -1.356
    506       H      2       1.000          0.329                         0.671
    507       H      2       1.000          0.329                         0.671
    508       O      1       6.000          7.346                        -1.346
    509       H      2       1.000          0.328                         0.672
    510       H      2       1.000          0.329                         0.671
    511       O      1       6.000          7.343                        -1.343
    512       H      2       1.000          0.330                         0.670
    513       H      2       1.000          0.329                         0.671
    514       O      1       6.000          7.376                        -1.376
[...]
 dbcsr_finalize                     152  8.5    0.009    0.019    0.674    0.754
 make_images_sizes                  128 10.4    0.000    0.000    0.552    0.737
 mp_alltoall_i44                    128 11.4    0.552    0.737    0.552    0.737
 build_core_ppl                       1  5.0    0.593    0.647    0.593    0.647
 calculate_norms                    896 10.5    0.485    0.641    0.485    0.641
 dbcsr_merge_all                    127  9.7    0.147    0.189    0.555    0.629
 setup_rec_index_2d                 128  9.4    0.597    0.622    0.597    0.622
 pw_integral_ab                       2 10.5    0.361    0.389    0.521    0.600
 buffer_matrices_ensure_size        128  9.4    0.513    0.569    0.513    0.569
 dbcsr_new_transposed                 4  7.5    0.015    0.021    0.481    0.566
 matrix_decluster                     1  7.0    0.000    0.001    0.521    0.560
 pw_grid_assign                       4  8.0    0.528    0.546    0.536    0.552
 dbcsr_redistribute                   4  8.5    0.257    0.459    0.461    0.542
 mp_allgather_i34                    64  9.4    0.392    0.518    0.392    0.518
 pw_copy                             16 11.9    0.364    0.515    0.364    0.515
 mp_sum_dv                          333 11.5    0.376    0.489    0.376    0.489
 pw_grid_remap                        4  8.0    0.089    0.112    0.381    0.487
 dbcsr_frobenius_norm                38  7.8    0.154    0.167    0.351    0.434
 compute_matrix_preconditioner        1  6.0    0.004    0.014    0.424    0.433
 create_local_tasks                   1  8.0    0.155    0.164    0.305    0.422
 mp_sum_im3                           4  9.0    0.292    0.409    0.292    0.409
 build_neighbor_lists_sac_ppl         1  5.0    0.378    0.386    0.378    0.386
 xc_rho_set_and_dset_create           2 11.5    0.000    0.000    0.340    0.385
 dbcsr_sym_m_v_mult_local_mm         67 11.1    0.308    0.365    0.308    0.366
 cp_dbcsr_alloc_block_from_nbl        5  5.4    0.191    0.230    0.290    0.350
 build_core_ppnl                      1  5.0    0.299    0.334    0.299    0.334
 rs_pw_transfer_RS2PW_50              2 10.5    0.086    0.129    0.254    0.329
 xc_functional_eval                   2 12.5    0.279    0.321    0.279    0.321
 mp_alltoall_i22                      9  9.0    0.245    0.318    0.245    0.318
 dbcsr_desymmetrize_deep              2  7.5    0.169    0.177    0.289    0.300
 dbcsr_special_finalize             192 10.4    0.002    0.011    0.223    0.296
 rs_pw_transfer_PW2RS_50              2 13.5    0.068    0.084    0.230    0.284
 get_current_loads                    8  8.5    0.101    0.109    0.192    0.280
 mp_alltoall_l11v                     1  9.0    0.149    0.262    0.149    0.262
 build_neighbor_lists_sab_all         1  5.0    0.255    0.259    0.255    0.259
 build_neighbor_lists_sap_ppnl        1  5.0    0.232    0.259    0.232    0.259
 calculate_ecore_overlap              1  4.0    0.001    0.001    0.154    0.240
 dbcsr_rep_row_to_rep_col_vec        67 11.1    0.029    0.034    0.191    0.234
 dbcsr_sort_indices                 308 11.6    0.217    0.232    0.217    0.232
 dbcsr_merge_single_wm              128 11.4    0.048    0.109    0.164    0.231
 make_images_pack                   128 10.4    0.187    0.211    0.194    0.218
 tree_to_linear_d                    50 11.2    0.174    0.218    0.174    0.218
 fft_wrap_pw1pw2_20                   4 13.0    0.015    0.023    0.151    0.206
 build_neighbor_lists_sab_orb         1  5.0    0.180    0.185    0.180    0.185
 mp_alltoall_l                        9  9.4    0.092    0.184    0.092    0.184
 create_qs_kind_set                   1  2.0    0.000    0.000    0.155    0.183
 read_qs_kind                         2  3.0    0.007    0.010    0.155    0.183
 build_kinetic_matrix_low             1  5.0    0.112    0.118    0.171    0.177
 parser_read_line                  2946  4.0    0.001    0.001    0.148    0.176
 parser_read_line_low                 5  5.0    0.002    0.006    0.147    0.176
 broadcast_input_information          5  6.0    0.000    0.000    0.145    0.174
 dbcsr_sort_data                    186 11.8    0.145    0.161    0.145    0.161
 build_overlap_matrix_low             1  5.0    0.091    0.098    0.151    0.160
 pw_zero                              2  9.5    0.118    0.154    0.118    0.154
 mp_bcast_i                         106  2.9    0.070    0.149    0.070    0.149
 mp_bcast_b                          68 10.0    0.106    0.149    0.106    0.149
 pw_poisson_rebuild                   2 10.5    0.094    0.146    0.094    0.146
 quick_finalize                      70 11.3    0.011    0.035    0.118    0.140
 dbcsr_col_vec_to_rep_row            67 11.1    0.010    0.021    0.112    0.137
 dbcsr_add_d                         12  7.5    0.000    0.000    0.081    0.134
 dbcsr_add_anytype                   12  8.5    0.029    0.052    0.081    0.134
 pw_axpy                             10  9.5    0.112    0.131    0.112    0.131
 multiply_cannon_metrocomm2         384 10.4    0.001    0.002    0.083    0.129
 dbcsr_scale_anytype                 31  9.0    0.070    0.124    0.071    0.125
 mp_bcast_am                          5  7.0    0.063    0.121    0.070    0.121
 dbcsr_reserve_blocks                14  9.6    0.038    0.050    0.100    0.121
 dbcsr_dot_sd                         5  9.2    0.056    0.073    0.098    0.120
 qs_env_rebuild_rho                   1  5.0    0.000    0.000    0.061    0.119
 qs_rho_rebuild                       1  6.0    0.000    0.000    0.061    0.119
 mp_isend_dm3                        76 12.3    0.054    0.108    0.054    0.108
 merge_index                        127 10.7    0.096    0.106    0.096    0.106
 dbcsr_data_new                    2236 10.4    0.073    0.104    0.073    0.104
 rs_pw_transfer_RS2PW_20              2 10.5    0.022    0.032    0.069    0.094
 mp_bcast_dv                         67 12.1    0.061    0.094    0.061    0.094
 mp_sum_iv                           60  9.5    0.087    0.093    0.087    0.093
 rs_pw_transfer_PW2RS_20              2 13.5    0.018    0.023    0.074    0.090
 dbcsr_trace_sd                       2  6.5    0.000    0.000    0.050    0.089
 dbcsr_trace_d                        2  7.5    0.001    0.001    0.050    0.089
 dbcsr_add_on_diag                   37  7.7    0.009    0.021    0.033    0.088
 external_control                     2  5.0    0.000    0.001    0.054    0.088
 arnoldi_init                         2  9.5    0.001    0.002    0.071    0.085
 load_balance_replicated              1  8.0    0.026    0.029    0.084    0.084
 mp_sum_i                            10  5.2    0.081    0.084    0.081    0.084
 restraint_control                    1  2.0    0.001    0.002    0.080    0.083
 mp_irecv_dv                       1637 11.8    0.045    0.082    0.045    0.082
 topology_control                     1  2.0    0.000    0.000    0.051    0.081
 multiply_cannon_multrec_finali      64 11.4    0.000    0.001    0.068    0.080
 dbcsr_mm_multrec_finalize           64 12.4    0.020    0.025    0.068    0.080
 dbcsr_data_release                4067 11.0    0.055    0.079    0.055    0.079
 dbcsr_scale_d                       19  7.7    0.000    0.000    0.044    0.078
 connectivity_control                 1  3.0    0.000    0.000    0.043    0.073
 calculate_atomic_block_dm            1  7.0    0.015    0.018    0.052    0.072
 create_fast_col_vec_access         134 11.1    0.000    0.000    0.060    0.069
 create_fast_col_vec_access_d       134 12.1    0.059    0.069    0.060    0.069
 dbcsr_mm_multrec_init               64  9.4    0.001    0.002    0.038    0.063
 evaluate_core_matrix_traces          2  7.5    0.000    0.000    0.063    0.063
 calculate_ptrace_kp                  4  8.5    0.000    0.000    0.063    0.063
 dbcsr_mm_csr_init                   64 10.4    0.007    0.008    0.037    0.062
 pw_grid_distribute                   4  8.0    0.057    0.059    0.061    0.062
 fft_wrap_pw1pw2_10                   4 13.0    0.003    0.005    0.049    0.061
 multrec_filtering                   56 13.5    0.048    0.058    0.048    0.058
 mp_isend_iv                       1217 11.4    0.039    0.058    0.039    0.058
 fill_hash_tables                    64 11.4    0.030    0.055    0.030    0.055
 dbcsr_make_untransposed_blocks      64  8.4    0.034    0.050    0.038    0.053
 dbcsr_create_new                   740 10.2    0.021    0.031    0.040    0.052
 distribute_molecules_2d              1  4.0    0.015    0.019    0.048    0.052
 get_fft_scratch                     22 14.0    0.022    0.050    0.022    0.050
 fft3d_s                              1  2.0    0.000    0.000    0.019    0.049
 mp_bcast_iv                         12  6.6    0.013    0.048    0.013    0.048
 mp_alltoall_i11v                    23  9.1    0.039    0.047    0.039    0.047
 dbcsr_make_index_list              192  9.4    0.037    0.046    0.037    0.046
 pw_scale                             2  9.5    0.033    0.042    0.033    0.042
 dbcsr_work_destroy_all             325 10.7    0.007    0.009    0.033    0.040
 topology_generate_bond               1  4.0    0.000    0.000    0.021    0.039
 mp_irecv_dm3                        76 12.3    0.019    0.039    0.019    0.039
 topology_generate_bond_3             1  5.0    0.000    0.000    0.021    0.039
 build_fist_neighbor_lists            1  6.0    0.000    0.000    0.021    0.039
 build_neighbor_lists                 1  7.0    0.020    0.039    0.021    0.039
 rs_pw_transfer_PW2RS_10              2 13.5    0.004    0.007    0.025    0.035
 make_basic_spatial_distributio       1  5.0    0.033    0.035    0.033    0.035
 dbcsr_filter_anytype                12  7.1    0.011    0.015    0.028    0.034
 mp_sum_b                            14  7.4    0.014    0.034    0.014    0.034
 dbcsr_make_dbcsr_index             344 11.7    0.023    0.032    0.023    0.032
 Gram_Schmidt_ortho_d                65 10.1    0.004    0.015    0.019    0.031
 dbcsr_data_copy_aa2                 27 11.3    0.030    0.031    0.030    0.031
 create_fast_row_vec_access         134 11.1    0.000    0.000    0.028    0.031
 create_fast_row_vec_access_d       134 12.1    0.027    0.031    0.027    0.031
 mp_max_i                           381  1.7    0.023    0.031    0.023    0.031
 dbcsr_destroy                      696  9.1    0.004    0.010    0.015    0.030
 build_neighbor_lists_sab_core        1  5.0    0.028    0.028    0.028    0.028
 rs_pw_transfer_RS2PW_10              2 10.5    0.006    0.011    0.020    0.026
 dbcsr_iterator_start               970 11.5    0.003    0.007    0.020    0.025
 topology_generate_molecule           1  4.0    0.012    0.023    0.012    0.024
 dbcsr_set                          277 11.4    0.000    0.000    0.006    0.022
 dbcsr_iterator_seek                970 12.5    0.017    0.022    0.017    0.022
 dbcsr_zero                         277 12.4    0.006    0.022    0.006    0.022
 mp_irecv_iv                       1197 11.4    0.006    0.022    0.006    0.022
 topology_molecules_check             1  4.0    0.008    0.020    0.008    0.020
 setup_buffer_matrices              128  9.4    0.001    0.002    0.015    0.019
 dbcsr_distribution_new             139  8.5    0.016    0.019    0.016    0.019
 topology_connectivity_pack           1  3.0    0.000    0.000    0.003    0.016
 topology_coordinate_pack             1  3.0    0.000    0.000    0.004    0.016
 topology_coordinate_pack_3           1  4.0    0.002    0.015    0.002    0.015
 mp_sum_im                            5  6.8    0.013    0.014    0.013    0.014
 mp_cart_create                       5  9.2    0.005    0.013    0.005    0.013
 dbcsr_work_create                  325  9.8    0.003    0.004    0.009    0.013
 topology_connectivity_pack_12        1  4.0    0.001    0.013    0.001    0.013
 topology_coordinate_pack_6           1  4.0    0.001    0.013    0.001    0.013
 dbcsr_make_index_exist             740 11.2    0.010    0.013    0.010    0.013
 dbcsr_add_wm_from_matrix             2  7.5    0.003    0.006    0.008    0.012
 dbcsr_get_data_size_used           133  9.8    0.008    0.009    0.008    0.009
 arnoldi_iram                         1  9.0    0.004    0.007    0.004    0.007
 dbcsr_fill_wm_from_matrix            2  8.5    0.003    0.006    0.004    0.006
 DGKS_ortho_d                        65 10.1    0.001    0.004    0.001    0.006
 dbcsr_gershgorin_norm                1  8.0    0.005    0.005    0.006    0.006
 mp_bcast_av                        443  1.0    0.002    0.003    0.005    0.005
 transpose_index_local                4  8.5    0.000    0.000    0.004    0.005
 mp_comm_free                        13  2.6    0.001    0.004    0.001    0.004
 mp_maxloc_dv                       887  1.0    0.004    0.004    0.004    0.004
 mp_allgather_l                       9  9.4    0.003    0.004    0.003    0.004
 mp_max_l                            22  1.8    0.003    0.004    0.003    0.004
 dbcsr_iterator_stop                970 11.5    0.002    0.003    0.002    0.003
 create_col_vec_from_matrix           5  9.4    0.000    0.000    0.002    0.003
 dbcsr_index_compact                  8  7.8    0.001    0.003    0.001    0.003
 mp_sum_lv                            7  5.4    0.002    0.003    0.002    0.003
 pw_pool_create_pw                   48 10.2    0.000    0.000    0.001    0.003
 pw_create                           21 10.7    0.001    0.002    0.001    0.002
 mp_bcast_im                          3 10.3    0.002    0.002    0.002    0.002
 dbcsr_reserve_all_blocks             9 10.4    0.000    0.001    0.001    0.002
 dbcsr_make_index_local_row         192  9.4    0.002    0.002    0.002    0.002
 topology_muc                         1  4.0    0.002    0.002    0.002    0.002
 calculate_atom                       2  8.0    0.000    0.000    0.000    0.002
 calculate_atom_restricted            2  9.0    0.000    0.002    0.000    0.002
 atom2d_build                         1  5.0    0.002    0.002    0.002    0.002
 ls_scf_create                        1  2.0    0.001    0.002    0.001    0.002
 lgrid_allocate_grid                  1  9.0    0.001    0.002    0.001    0.002
 distribute_molecules_1d              1  3.0    0.001    0.002    0.001    0.002
 matrix_ls_create                     1  5.0    0.000    0.001    0.001    0.001
 ls_scf_release                       1  2.0    0.000    0.001    0.000    0.001
 compute_max_radius                   1  6.0    0.001    0.001    0.001    0.001
 create_replicated_col_vec_from       2  9.5    0.000    0.000    0.001    0.001
 init_cube_info                       4  6.0    0.001    0.001    0.001    0.001
 rs_grid_create_descriptor            4  6.0    0.000    0.000    0.001    0.001
 pw_grid_allocate                     4  8.0    0.001    0.001    0.001    0.001
 mp_comm_dup                          8  6.5    0.001    0.001    0.001    0.001
 rs_grid_create                       8  6.5    0.000    0.001    0.000    0.001
 topology_connectivity_pack_3         1  4.0    0.001    0.001    0.001    0.001
 mp_sync                              4  7.0    0.000    0.001    0.000    0.001
 release_fast_vec_access            268 11.1    0.000    0.001    0.000    0.001
 mp_cart_sub                          2 10.0    0.001    0.001    0.001    0.001
 mp_rank_compare                     21 14.5    0.000    0.001    0.000    0.001
 dbcsr_switch_data_area             198 10.4    0.000    0.000    0.001    0.001
 mp_environ_c                        21 14.5    0.000    0.001    0.000    0.001
 create_replicated_row_vec_from       2  9.5    0.000    0.000    0.000    0.001
 topology_connectivity_pack_9         1  4.0    0.000    0.000    0.000    0.000
 topology_coordinate_pack_7a          1  4.0    0.000    0.000    0.000    0.000
 dbcsr_finalize_lib                   1  2.0    0.000    0.000    0.000    0.000
 coordinate_control                   1  3.0    0.000    0.000    0.000    0.000
 coordinate_control_READ_COORDI       1  4.0    0.000    0.000    0.000    0.000
 read_atoms_input                     1  5.0    0.000    0.000    0.000    0.000
 topology_connectivity_pack_1         1  4.0    0.000    0.000    0.000    0.000
 compute_evals                        3  9.3    0.000    0.000    0.000    0.000
 topology_connectivity_pack_10        1  4.0    0.000    0.000    0.000    0.000
 topology_coordinate_pack_7b          1  4.0    0.000    0.000    0.000    0.000
 ec_env_release                       1  2.0    0.000    0.000    0.000    0.000
 topology_generate_bond_4             1  5.0    0.000    0.000    0.000    0.000
 topology_constraint_pack             1  3.0    0.000    0.000    0.000    0.000
 topology_generate_molecule_PAR       1  5.0    0.000    0.000    0.000    0.000
 topology_constraint_pack_1           1  4.0    0.000    0.000    0.000    0.000
 topology_connectivity_pack_7         1  4.0    0.000    0.000    0.000    0.000
 mp_comm_compare                     24 13.7    0.000    0.000    0.000    0.000
 mp_environ_l                       123  4.7    0.000    0.000    0.000    0.000
 atom_int_setup                       2  8.0    0.000    0.000    0.000    0.000
 dbcsr_mm_sched_init                 64 11.4    0.000    0.000    0.000    0.000
 ls_scf_init_read_write_input         1  3.0    0.000    0.000    0.000    0.000
 create_grid_atom                     2  8.0    0.000    0.000    0.000    0.000
 topology_connectivity_pack_6         1  4.0    0.000    0.000    0.000    0.000
 topology_connectivity_pack_8         1  4.0    0.000    0.000    0.000    0.000
 topology_coordinate_pack_5           1  4.0    0.000    0.000    0.000    0.000
 topology_connectivity_pack_11        1  4.0    0.000    0.000    0.000    0.000
 init_qs_kind_set                     1  3.0    0.000    0.000    0.000    0.000
 init_qs_kind                         2  4.0    0.000    0.000    0.000    0.000
 dbcsr_get_local_rows                64  8.4    0.000    0.000    0.000    0.000
 dbcsr_get_local_cols                64  8.4    0.000    0.000    0.000    0.000
 init_orb_basis_set                   2  5.0    0.000    0.000    0.000    0.000
 init_cphi_and_sphi                   2  6.0    0.000    0.000    0.000    0.000
 qs_scf_post_ps_implicit              1  6.0    0.000    0.000    0.000    0.000
 pw_pool_give_back_pw                50 10.9    0.000    0.000    0.000    0.000
 connectivity_control_check_ele       1  4.0    0.000    0.000    0.000    0.000
 init_interaction_radii               1  3.0    0.000    0.000    0.000    0.000
 write_qs_kind_set                    1  3.0    0.000    0.000    0.000    0.000
 topology_connectivity_pack_1.1       1  4.0    0.000    0.000    0.000    0.000
 topology_generate_bend               1  4.0    0.000    0.000    0.000    0.000
 dbcsr_mm_sched_finalize             64 13.4    0.000    0.000    0.000    0.000
 topology_connectivity_pack_12_       1  4.0    0.000    0.000    0.000    0.000
 mp_min_i                             8  6.0    0.000    0.000    0.000    0.000
 dbcsr_get_global_col_map            64  8.4    0.000    0.000    0.000    0.000
 -------------------------------------------------------------------------------

 The number of warnings for this run is : 1
 
 -------------------------------------------------------------------------------
  **** **** ******  **  PROGRAM ENDED AT                 2020-04-22 10:54:41.372
 ***** ** ***  *** **   PROGRAM RAN ON                                   cn-0021
 **    ****   ******    PROGRAM RAN BY                                      lass
 ***** **    ** ** **   PROGRAM PROCESS ID                                 85548
  **** **  *******  **  PROGRAM STOPPED IN /scratch/hpc-prf-ldft/lass/lass20_sc/
                                           eval/software/weak-scaling-NS-tweaked
                                           -to-5threads/run5-pinned
