 DBCSR| CPU Multiplication driver                                           XSMM
 DBCSR| Multrec recursion limit                                              512
 DBCSR| Multiplication stack size                                           1000
 DBCSR| Maximum elements for images                                    UNLIMITED
 DBCSR| Multiplicative factor virtual images                                   1
 DBCSR| Use multiplication densification                                       T
 DBCSR| Multiplication size stacks                                             3
 DBCSR| Use memory pool for CPU allocation                                     F
 DBCSR| Number of 3D layers                                               SINGLE
 DBCSR| Use MPI memory allocation                                              F
 DBCSR| Use RMA algorithm                                                      F
 DBCSR| Use Communication thread                                               T
 DBCSR| Communication thread load                                             87


  **** **** ******  **  PROGRAM STARTED AT               2020-04-15 23:29:50.410
 ***** ** ***  *** **   PROGRAM STARTED ON                               cn-0012
 **    ****   ******    PROGRAM STARTED BY                                  lass
 ***** **    ** ** **   PROGRAM PROCESS ID                                221482
  **** **  *******  **  PROGRAM STARTED IN /scratch/hpc-prf-ldft/lass/lass20_sc/
                                           eval/software/strong-scaling

 CP2K| version string:                    CP2K version 8.0 (Development Version)
 CP2K| source code revision number:                                  git:28e460e
 CP2K| cp2kflags: omp libint fftw3 libxc elpa parallel mpi3 scalapack xsmm max_c
 CP2K|            ontr=4 mkl
 CP2K| is freely available from                            https://www.cp2k.org/
 CP2K| Program compiled at                         Sa 11. Apr 21:37:19 CEST 2020
 CP2K| Program compiled on                                               ln-0001
 CP2K| Program compiled for                                   Linux-x86-64-intel
 CP2K| Data directory path                  /scratch/hpc-prf-ldft/lass/cp2k/data
 CP2K| Input file name                                                 input.inp
 
 GLOBAL| Force Environment number                                              1
 GLOBAL| Basis set file name                                        BASIS_MOLOPT
 GLOBAL| Potential file name                                           POTENTIAL
 GLOBAL| MM Potential file name                                     MM_POTENTIAL
 GLOBAL| Coordinate file name                                      __STD_INPUT__
 GLOBAL| Method name                                                        CP2K
 GLOBAL| Project name                                                        H2O
 GLOBAL| Preferred FFT library                                             FFTW3
 GLOBAL| Preferred diagonalization lib.                                     ELPA
 GLOBAL| Run type                                                         ENERGY
 GLOBAL| All-to-all communication in single precision                          F
 GLOBAL| FFTs using library dependent lengths                                  T
 GLOBAL| Global print level                                               MEDIUM
 GLOBAL| MPI I/O enabled                                                       T
 GLOBAL| Total number of message passing processes                           120
 GLOBAL| Number of threads for this process                                    1
 GLOBAL| This output is from process                                           0
 GLOBAL| CPU model name                 Intel(R) Xeon(R) Gold 6148 CPU @ 2.40GHz
 GLOBAL| CPUID                                                              1003

 MEMORY| system memory details [Kb]
 MEMORY|                        rank 0           min           max       average
 MEMORY| MemTotal            196699340     196699340     196699348     196699344
 MEMORY| MemFree             175376756     175376756     178023532     176380838
 MEMORY| Buffers                     0             0             0             0
 MEMORY| Cached               12314912       9672040      12314912      11425430
 MEMORY| Slab                  2247108       1988928       2250716       2162250
 MEMORY| SReclaimable           583056        537416        672184        597552
 MEMORY| MemLikelyFree       188274724     188232988     188703752     188403821


 *** Fundamental physical constants (SI units) ***

 *** Literature: B. J. Mohr and B. N. Taylor,
 ***             CODATA recommended values of the fundamental physical
 ***             constants: 2006, Web Version 5.1
 ***             http://physics.nist.gov/constants

 Speed of light in vacuum [m/s]                             2.99792458000000E+08
 Magnetic constant or permeability of vacuum [N/A**2]       1.25663706143592E-06
 Electric constant or permittivity of vacuum [F/m]          8.85418781762039E-12
 Planck constant (h) [J*s]                                  6.62606896000000E-34
 Planck constant (h-bar) [J*s]                              1.05457162825177E-34
 Elementary charge [C]                                      1.60217648700000E-19
 Electron mass [kg]                                         9.10938215000000E-31
 Electron g factor [ ]                                     -2.00231930436220E+00
 Proton mass [kg]                                           1.67262163700000E-27
 Fine-structure constant                                    7.29735253760000E-03
 Rydberg constant [1/m]                                     1.09737315685270E+07
 Avogadro constant [1/mol]                                  6.02214179000000E+23
 Boltzmann constant [J/K]                                   1.38065040000000E-23
 Atomic mass unit [kg]                                      1.66053878200000E-27
 Bohr radius [m]                                            5.29177208590000E-11

 *** Conversion factors ***

 [u] -> [a.u.]                                              1.82288848426455E+03
 [Angstrom] -> [Bohr] = [a.u.]                              1.88972613288564E+00
 [a.u.] = [Bohr] -> [Angstrom]                              5.29177208590000E-01
 [a.u.] -> [s]                                              2.41888432650478E-17
 [a.u.] -> [fs]                                             2.41888432650478E-02
 [a.u.] -> [J]                                              4.35974393937059E-18
 [a.u.] -> [N]                                              8.23872205491840E-08
 [a.u.] -> [K]                                              3.15774647902944E+05
 [a.u.] -> [kJ/mol]                                         2.62549961709828E+03
 [a.u.] -> [kcal/mol]                                       6.27509468713739E+02
 [a.u.] -> [Pa]                                             2.94210107994716E+13
 [a.u.] -> [bar]                                            2.94210107994716E+08
 [a.u.] -> [atm]                                            2.90362800883016E+08
 [a.u.] -> [eV]                                             2.72113838565563E+01
 [a.u.] -> [Hz]                                             6.57968392072181E+15
 [a.u.] -> [1/cm] (wave numbers)                            2.19474631370540E+05
 [a.u./Bohr**2] -> [1/cm]                                   5.14048714338585E+03
 

 CELL_TOP| Volume [angstrom^3]:                                       328074.988
 CELL_TOP| Vector a [angstrom    68.970     0.000     0.000    |a| =      68.970
 CELL_TOP| Vector b [angstrom     0.000    68.970     0.000    |b| =      68.970
 CELL_TOP| Vector c [angstrom     0.000     0.000    68.970    |c| =      68.970
 CELL_TOP| Angle (b,c), alpha [degree]:                                   90.000
 CELL_TOP| Angle (a,c), beta  [degree]:                                   90.000
 CELL_TOP| Angle (a,b), gamma [degree]:                                   90.000
 CELL_TOP| Numerically orthorhombic:                                         YES

 CELL_UC| Volume [angstrom^3]:                                           956.487
 CELL_UC| Vector a [angstrom]     9.853     0.000     0.000    |a| =       9.853
 CELL_UC| Vector b [angstrom]     0.000     9.853     0.000    |b| =       9.853
 CELL_UC| Vector c [angstrom]     0.000     0.000     9.853    |c| =       9.853
 CELL_UC| Angle (b,c), alpha [degree]:                                    90.000
 CELL_UC| Angle (a,c), beta  [degree]:                                    90.000
 CELL_UC| Angle (a,b), gamma [degree]:                                    90.000
 CELL_UC| Numerically orthorhombic:                                          YES
 
 GENERATE|  Preliminary Number of Bonds generated:                            64
 GENERATE|  Achieved consistency in connectivity generation.
 GENERATE|  Number of Bonds generated:                                        64
 GENERATE|  Preliminary Number of Bends generated:                            32
 GENERATE|  Number of Bends generated:                                        32
 GENERATE|  Number of UB generated:                                           32
 GENERATE|  Preliminary Number of Torsions generated:                          0

 CELL| Volume [angstrom^3]:                                           328074.988
 CELL| Vector a [angstrom]:      68.970     0.000     0.000    |a| =      68.970
 CELL| Vector b [angstrom]:       0.000    68.970     0.000    |b| =      68.970
 CELL| Vector c [angstrom]:       0.000     0.000    68.970    |c| =      68.970
 CELL| Angle (b,c), alpha [degree]:                                       90.000
 CELL| Angle (a,c), beta  [degree]:                                       90.000
 CELL| Angle (a,b), gamma [degree]:                                       90.000
 CELL| Numerically orthorhombic:                                             YES

 CELL_REF| Volume [angstrom^3]:                                       328074.988
 CELL_REF| Vector a [angstrom    68.970     0.000     0.000    |a| =      68.970
 CELL_REF| Vector b [angstrom     0.000    68.970     0.000    |b| =      68.970
 CELL_REF| Vector c [angstrom     0.000     0.000    68.970    |c| =      68.970
 CELL_REF| Angle (b,c), alpha [degree]:                                   90.000
 CELL_REF| Angle (a,c), beta  [degree]:                                   90.000
 CELL_REF| Angle (a,b), gamma [degree]:                                   90.000
 CELL_REF| Numerically orthorhombic:                                         YES

 *******************************************************************************
 *******************************************************************************
 **                                                                           **
 **     #####                         ##              ##                      **
 **    ##   ##            ##          ##              ##                      **
 **   ##     ##                       ##            ######                    **
 **   ##     ##  ##   ##  ##   #####  ##  ##   ####   ##    #####    #####    **
 **   ##     ##  ##   ##  ##  ##      ## ##   ##      ##   ##   ##  ##   ##   **
 **   ##  ## ##  ##   ##  ##  ##      ####     ###    ##   ######   ######    **
 **    ##  ###   ##   ##  ##  ##      ## ##      ##   ##   ##       ##        **
 **     #######   #####   ##   #####  ##  ##  ####    ##    #####   ##        **
 **           ##                                                    ##        **
 **                                                                           **
 **                                                ... make the atoms dance   **
 **                                                                           **
 **            Copyright (C) by CP2K developers group (2000 - 2020)           **
 **                                                                           **
 *******************************************************************************

 DFT| Spin restricted Kohn-Sham (RKS) calculation                            RKS
 DFT| Multiplicity                                                             1
 DFT| Number of spin states                                                    1
 DFT| Charge                                                                   0
 DFT| Self-interaction correction (SIC)                                       NO
 DFT| Cutoffs: density                                              1.000000E-10
 DFT|          gradient                                             1.000000E-10
 DFT|          tau                                                  1.000000E-10
 DFT|          cutoff_smoothing_range                               0.000000E+00
 DFT| XC density smoothing                                                  NONE
 DFT| XC derivatives                                                          PW
 FUNCTIONAL| ROUTINE=NEW
 FUNCTIONAL| PADE:
 FUNCTIONAL| S. Goedecker, M. Teter and J. Hutter, Phys. Rev. B 54, 1703 (1996) 

 QS| Method:                                                                 GPW
 QS| Density plane wave grid type                        NON-SPHERICAL FULLSPACE
 QS| Number of grid levels:                                                    4
 QS| Density cutoff [a.u.]:                                                150.0
 QS| Multi grid cutoff [a.u.]: 1) grid level                               150.0
 QS|                           2) grid level                                50.0
 QS|                           3) grid level                                16.7
 QS|                           4) grid level                                 5.6
 QS| Grid level progression factor:                                          3.0
 QS| Relative density cutoff [a.u.]:                                        20.0
 QS| Interaction thresholds: eps_pgf_orb:                                1.0E-05
 QS|                         eps_filter_matrix:                          0.0E+00
 QS|                         eps_core_charge:                            1.0E-12
 QS|                         eps_rho_gspace:                             1.0E-10
 QS|                         eps_rho_rspace:                             1.0E-10
 QS|                         eps_gvg_rspace:                             1.0E-05
 QS|                         eps_ppl:                                    1.0E-02
 QS|                         eps_ppnl:                                   1.0E-07


 ATOMIC KIND INFORMATION

  1. Atomic kind: O                                     Number of atoms:   10976

     Orbital Basis Set                                         SZV-MOLOPT-SR-GTH

       Number of orbital shell sets:                                           1
       Number of orbital shells:                                               2
       Number of primitive Cartesian functions:                                5
       Number of Cartesian basis functions:                                    4
       Number of spherical basis functions:                                    4
       Norm type:                                                              2

       Normalised Cartesian orbitals:

                        Set   Shell   Orbital            Exponent    Coefficient

                          1       1    2s               10.389228       0.396646
                                                         3.849621       0.208811
                                                         1.388401      -0.301641
                                                         0.496955      -0.274061
                                                         0.162492      -0.033677

                          1       2    3px              10.389228      -1.530415
                                                         3.849621      -1.371928
                                                         1.388401      -0.761951
                                                         0.496955      -0.253695
                                                         0.162492      -0.035541
                          1       2    3py              10.389228      -1.530415
                                                         3.849621      -1.371928
                                                         1.388401      -0.761951
                                                         0.496955      -0.253695
                                                         0.162492      -0.035541
                          1       2    3pz              10.389228      -1.530415
                                                         3.849621      -1.371928
                                                         1.388401      -0.761951
                                                         0.496955      -0.253695
                                                         0.162492      -0.035541

     GTH Potential information for                                   GTH-PADE-q6

       Description:                       Goedecker-Teter-Hutter pseudopotential
                                           Goedecker et al., PRB 54, 1703 (1996)
                                          Hartwigsen et al., PRB 58, 3641 (1998)
                                                      Krack, TCA 114, 145 (2005)

       Gaussian exponent of the core charge distribution:               8.154466
       Electronic configuration (s p d ...):                               2   4

       Parameters of the local part of the GTH pseudopotential:

                          rloc        C1          C2          C3          C4
                        0.247621  -16.580318    2.395701

       Parameters of the non-local part of the GTH pseudopotential:

                   l      r(l)      h(i,j,l)

                   0    0.221786   18.266917
                   1    0.256829

  2. Atomic kind: H                                     Number of atoms:   21952

     Orbital Basis Set                                         SZV-MOLOPT-SR-GTH

       Number of orbital shell sets:                                           1
       Number of orbital shells:                                               1
       Number of primitive Cartesian functions:                                5
       Number of Cartesian basis functions:                                    1
       Number of spherical basis functions:                                    1
       Norm type:                                                              2

       Normalised Cartesian orbitals:

                        Set   Shell   Orbital            Exponent    Coefficient

                          1       1    2s               10.068468      -0.133023
                                                         2.680223      -0.177618
                                                         0.791502      -0.258419
                                                         0.239116      -0.107525
                                                         0.082193      -0.014019

     GTH Potential information for                                   GTH-PADE-q1

       Description:                       Goedecker-Teter-Hutter pseudopotential
                                           Goedecker et al., PRB 54, 1703 (1996)
                                          Hartwigsen et al., PRB 58, 3641 (1998)
                                                      Krack, TCA 114, 145 (2005)

       Gaussian exponent of the core charge distribution:              12.500000
       Electronic configuration (s p d ...):                                   1

       Parameters of the local part of the GTH pseudopotential:

                          rloc        C1          C2          C3          C4
                        0.200000   -4.180237    0.725075


 TOTAL NUMBERS AND MAXIMUM NUMBERS

  Total number of            - Atomic kinds:                                   2
                             - Atoms:                                      32928
                             - Shell sets:                                 32928
                             - Shells:                                     43904
                             - Primitive Cartesian functions:             164640
                             - Cartesian basis functions:                  65856
                             - Spherical basis functions:                  65856

  Maximum angular momentum of- Orbital basis functions:                        1
                             - Local part of the GTH pseudopotential:          2
                             - Non-local part of the GTH pseudopotential:      0

 PW_GRID| Information for grid number                                          1
 PW_GRID| Grid distributed over                                   120 processors
 PW_GRID| Real space group dimensions                                   120    1
 PW_GRID| the grid is blocked:                                                NO
 PW_GRID| Cutoff [a.u.]                                                    150.0
 PW_GRID| spherical cutoff:                                                   NO
 PW_GRID|   Bounds   1           -360     359                Points:         720
 PW_GRID|   Bounds   2           -360     359                Points:         720
 PW_GRID|   Bounds   3           -360     359                Points:         720
 PW_GRID| Volume element (a.u.^3)  0.5932E-02     Volume (a.u.^3)   2213959.7879
 PW_GRID| Grid span                                                    FULLSPACE
 PW_GRID|   Distribution                         Average         Max         Min
 PW_GRID|   G-Vectors                          3110400.0     3110400     3110400
 PW_GRID|   G-Rays                                4320.0        4320        4320
 PW_GRID|   Real Space Points                  3110400.0     3110400     3110400

 PW_GRID| Information for grid number                                          2
 PW_GRID| Number of the reference grid                                         1
 PW_GRID| Grid distributed over                                   120 processors
 PW_GRID| Real space group dimensions                                   120    1
 PW_GRID| the grid is blocked:                                                NO
 PW_GRID| Cutoff [a.u.]                                                     50.0
 PW_GRID| spherical cutoff:                                                   NO
 PW_GRID|   Bounds   1           -210     209                Points:         420
 PW_GRID|   Bounds   2           -210     209                Points:         420
 PW_GRID|   Bounds   3           -210     209                Points:         420
 PW_GRID| Volume element (a.u.^3)  0.2988E-01     Volume (a.u.^3)   2213959.7879
 PW_GRID| Grid span                                                    FULLSPACE
 PW_GRID|   Distribution                         Average         Max         Min
 PW_GRID|   G-Vectors                           617400.0      618240      616980
 PW_GRID|   G-Rays                                1470.0        1472        1469
 PW_GRID|   Real Space Points                   617400.0      705600      529200

 PW_GRID| Information for grid number                                          3
 PW_GRID| Number of the reference grid                                         1
 PW_GRID| Grid distributed over                                   120 processors
 PW_GRID| Real space group dimensions                                   120    1
 PW_GRID| the grid is blocked:                                                NO
 PW_GRID| Cutoff [a.u.]                                                     16.7
 PW_GRID| spherical cutoff:                                                   NO
 PW_GRID|   Bounds   1           -120     119                Points:         240
 PW_GRID|   Bounds   2           -120     119                Points:         240
 PW_GRID|   Bounds   3           -120     119                Points:         240
 PW_GRID| Volume element (a.u.^3)  0.1602         Volume (a.u.^3)   2213959.7879
 PW_GRID| Grid span                                                    FULLSPACE
 PW_GRID|   Distribution                         Average         Max         Min
 PW_GRID|   G-Vectors                           115200.0      115440      114960
 PW_GRID|   G-Rays                                 480.0         481         479
 PW_GRID|   Real Space Points                   115200.0      115200      115200

 PW_GRID| Information for grid number                                          4
 PW_GRID| Number of the reference grid                                         1
 PW_GRID| Grid distributed over                                   120 processors
 PW_GRID| Real space group dimensions                                   120    1
 PW_GRID| the grid is blocked:                                                NO
 PW_GRID| Cutoff [a.u.]                                                      5.6
 PW_GRID| spherical cutoff:                                                   NO
 PW_GRID|   Bounds   1            -70      69                Points:         140
 PW_GRID|   Bounds   2            -70      69                Points:         140
 PW_GRID|   Bounds   3            -70      69                Points:         140
 PW_GRID| Volume element (a.u.^3)  0.8068         Volume (a.u.^3)   2213959.7879
 PW_GRID| Grid span                                                    FULLSPACE
 PW_GRID|   Distribution                         Average         Max         Min
 PW_GRID|   G-Vectors                            22866.7       23240       22540
 PW_GRID|   G-Rays                                 163.3         166         161
 PW_GRID|   Real Space Points                    22866.7       39200       19600

 POISSON| Solver                                                        PERIODIC
 POISSON| Periodicity                                                        XYZ

 RS_GRID| Information for grid number                                          1
 RS_GRID|   Bounds   1           -360     359                Points:         720
 RS_GRID|   Bounds   2           -360     359                Points:         720
 RS_GRID|   Bounds   3           -360     359                Points:         720
 RS_GRID| Real space distribution over                                  4 groups
 RS_GRID| Real space distribution along direction                              1
 RS_GRID| Border size                                                         19
 RS_GRID| Real space distribution over                                  5 groups
 RS_GRID| Real space distribution along direction                              2
 RS_GRID| Border size                                                         19
 RS_GRID| Real space distribution over                                  6 groups
 RS_GRID| Real space distribution along direction                              3
 RS_GRID| Border size                                                         19
 RS_GRID|   Distribution                         Average         Max         Min
 RS_GRID|   Planes                                 218.0         218         218
 RS_GRID|   Distribution                         Average         Max         Min
 RS_GRID|   Planes                                 182.0         182         182
 RS_GRID|   Distribution                         Average         Max         Min
 RS_GRID|   Planes                                 158.0         158         158

 RS_GRID| Information for grid number                                          2
 RS_GRID|   Bounds   1           -210     209                Points:         420
 RS_GRID|   Bounds   2           -210     209                Points:         420
 RS_GRID|   Bounds   3           -210     209                Points:         420
 RS_GRID| Real space distribution over                                  4 groups
 RS_GRID| Real space distribution along direction                              1
 RS_GRID| Border size                                                         19
 RS_GRID| Real space distribution over                                  5 groups
 RS_GRID| Real space distribution along direction                              2
 RS_GRID| Border size                                                         19
 RS_GRID| Real space distribution over                                  6 groups
 RS_GRID| Real space distribution along direction                              3
 RS_GRID| Border size                                                         19
 RS_GRID|   Distribution                         Average         Max         Min
 RS_GRID|   Planes                                 143.0         143         143
 RS_GRID|   Distribution                         Average         Max         Min
 RS_GRID|   Planes                                 122.0         122         122
 RS_GRID|   Distribution                         Average         Max         Min
 RS_GRID|   Planes                                 108.0         108         108

 RS_GRID| Information for grid number                                          3
 RS_GRID|   Bounds   1           -120     119                Points:         240
 RS_GRID|   Bounds   2           -120     119                Points:         240
 RS_GRID|   Bounds   3           -120     119                Points:         240
 RS_GRID| Real space distribution over                                  4 groups
 RS_GRID| Real space distribution along direction                              1
 RS_GRID| Border size                                                         20
 RS_GRID| Real space distribution over                                  5 groups
 RS_GRID| Real space distribution along direction                              2
 RS_GRID| Border size                                                         20
 RS_GRID| Real space distribution over                                  6 groups
 RS_GRID| Real space distribution along direction                              3
 RS_GRID| Border size                                                         20
 RS_GRID|   Distribution                         Average         Max         Min
 RS_GRID|   Planes                                 100.0         100         100
 RS_GRID|   Distribution                         Average         Max         Min
 RS_GRID|   Planes                                  88.0          88          88
 RS_GRID|   Distribution                         Average         Max         Min
 RS_GRID|   Planes                                  80.0          80          80

 RS_GRID| Information for grid number                                          4
 RS_GRID|   Bounds   1            -70      69                Points:         140
 RS_GRID|   Bounds   2            -70      69                Points:         140
 RS_GRID|   Bounds   3            -70      69                Points:         140
 RS_GRID| Real space distribution over                                  4 groups
 RS_GRID| Real space distribution along direction                              1
 RS_GRID| Border size                                                         20
 RS_GRID| Real space distribution over                                  5 groups
 RS_GRID| Real space distribution along direction                              2
 RS_GRID| Border size                                                         20
 RS_GRID| Real space distribution over                                  6 groups
 RS_GRID| Real space distribution along direction                              3
 RS_GRID| Border size                                                         20
 RS_GRID|   Distribution                         Average         Max         Min
 RS_GRID|   Planes                                  75.0          75          75
 RS_GRID|   Distribution                         Average         Max         Min
 RS_GRID|   Planes                                  68.0          68          68
 RS_GRID|   Distribution                         Average         Max         Min
 RS_GRID|   Planes                                  63.3          64          63

 ------------------------------ Linear scaling SCF -----------------------------
 eps_scf:                                                              0.100E-04
 eps_filter:                                                           0.100E-04
 mixing_fraction:                                                      0.450E+00
 max_scf:                                                                      1
 fixed chemical potential (mu)                                                 F
 has unit metric:                                                              F
 Computing inv(S):                                                             T
 Computing sqrt(S):                                                            T
 Computing S preconditioner                                                    T
 S sqrt method:                                                     NEWTONSCHULZ
 S sqrt order:                                                                 3
 Extrapolation order:                                                          4
 Use single precision matrices                                                 F
 S preconditioner type                                                 MOLECULAR
 Polarized Atomic Orbitals (PAO)                                               F
 Purification method                                              sign iteration
 Sign method:                                                   submatrix method
 Submatrix sign method:                                                   direct
 Sign order:                                                                   2
 Symmetric sign calculation:                                                   T
 Cluster type                                                          MOLECULAR
 Computing Chebyshev                                                       FALSE
 Using PAO                                                                     F
 -------------------------------------------------------------------------------

 
     Lanczos converged:  T threshold:   0.100E-02
     Est. extremal eigenvalues:    0.192E+01   0.330E+00
     Est. condition number :    0.582E+01
 
 Order=           3
     NS sqrt iter    1 0.00009111   0.511E+00       0.392        0.403
     NS sqrt iter    2 0.00009111   0.198E+00       0.137        1.155
     NS sqrt iter    3 0.00009111   0.121E-01       0.039        4.020
     NS sqrt iter    4 0.00009111   0.378E-05       0.046        2.552
     Symmetrizing Results
     Final NS sqrt iter    4 0.00009111   0.235E-10

 
     Lanczos converged:  T threshold:   0.100E-02
     Est. extremal eigenvalues:    0.164E+01   0.622E+00
     Est. condition number :    0.264E+01
 
 Order=           3
     NS sqrt iter    1 0.01039199   0.260E+00       0.892      320.358
     NS sqrt iter    2 0.00828797   0.205E-01       1.208      518.883
     NS sqrt iter    3 0.00823672   0.468E-04       0.517      223.436
     Symmetrizing Results
     Final NS sqrt iter    3 0.00823957   0.154E-05



 Guess for atomic kind: O

 Electronic structure
    Total number of core electrons                                          2.00
    Total number of valence electrons                                       6.00
    Total number of electrons                                               8.00
    Multiplicity                                                   not specified
    S   [  2.00] 2.00
    P      4.00
 

 *******************************************************************************
                  Iteration          Convergence                     Energy [au]
 *******************************************************************************
                          1         0.00000                     -15.707921728522

 Energy components [Hartree]           Total Energy ::          -15.707921728522
                                        Band Energy ::           -2.136736949465
                                     Kinetic Energy ::           11.912575941791
                                   Potential Energy ::          -27.620497670312
                                      Virial (-V/T) ::            2.318599923751
                                        Core Energy ::          -26.283592465485
                                          XC Energy ::           -3.178950412391
                                     Coulomb Energy ::           13.754621149354
                       Total Pseudopotential Energy ::          -38.230330262842
                       Local Pseudopotential Energy ::          -39.524789846979
                    Nonlocal Pseudopotential Energy ::            1.294459584137
                                        Confinement ::            0.341618555667

 Orbital energies  State     L     Occupation   Energy[a.u.]          Energy[eV]

                       1     0          2.000      -0.709155          -19.297083
 
                       1     1          4.000      -0.179607           -4.887351
 

 Total Electron Density at R=0:                                         0.000031

 Guess for atomic kind: H

 Electronic structure
    Total number of core electrons                                          0.00
    Total number of valence electrons                                       1.00
    Total number of electrons                                               1.00
    Multiplicity                                                   not specified
    S      1.00
 

 *******************************************************************************
                  Iteration          Convergence                     Energy [au]
 *******************************************************************************
                          1         0.00000                      -0.372474116344

 Energy components [Hartree]           Total Energy ::           -0.372474116344
                                        Band Energy ::           -0.184689713228
                                     Kinetic Energy ::            0.795946116619
                                   Potential Energy ::           -1.168420232963
                                      Virial (-V/T) ::            1.467963984706
                                        Core Energy ::           -0.452545141516
                                          XC Energy ::           -0.314416247311
                                     Coulomb Energy ::            0.394487272483
                       Total Pseudopotential Energy ::           -1.259976600556
                       Local Pseudopotential Energy ::           -1.259976600556
                    Nonlocal Pseudopotential Energy ::            0.000000000000
                                        Confinement ::            0.114853424211

 Orbital energies  State     L     Occupation   Energy[a.u.]          Energy[eV]

                       1     0          1.000      -0.184690           -5.025663
 

 Total Electron Density at R=0:                                         0.476934
 Re-scaling the density matrix to get the right number of electrons
                  # Electrons              Trace(P)               Scaling factor
                        87808             87808.000                        1.000
 Energy with the initial guess:   -185962.968186724

 Combining            1  size          540  flops    3456649728000.00     
 Combining            2  size          852  flops    6788329003008.00     
 Combining            3  size         1074  flops    9064955644416.00     
 Combining            4  size         1164  flops    8655119004672.00     
 Combining            5  size         1188  flops    7361281260748.80     
 Combining            6  size         1452  flops    11200120436736.0     
 Combining            7  size         1572  flops    12182423113728.0     
 Combining            8  size         1602  flops    11281624546752.0     
 Combining            9  size         1602  flops    10028110708224.0     
 Combining           10  size         1740  flops    11564366284800.0     
 Combining           11  size         1800  flops    11638551272727.3     
 Combining           12  size         1866  flops    11885782156416.0     
 Combining           13  size         1968  flops    12870814289604.9     
 Combining           14  size         1980  flops    12171430656000.0     
 Combining           15  size         1980  flops    11360001945600.0     
 Combining           16  size         1998  flops    10943104917024.0     
 Combining           17  size         2064  flops    11354140172769.9     
 Combining           18  size         2064  flops    10723354607616.0     
 Combining           19  size         2142  flops    11354784403482.9     
 Combining           20  size         2142  flops    10787045183308.8     
 Combining           21  size         2166  flops    10622583562752.0     
 Combining           22  size         2166  flops    10139738855354.2     
 Combining           23  size         2172  flops    9779704235586.78     
 Combining           24  size         2172  flops    9372216559104.00     
 Combining           25  size         2172  flops    8997327896739.84     
 Combining           26  size         2172  flops    8651276823788.31     
 Combining           27  size         2178  flops    8400090327552.00     
 Combining           28  size         2178  flops    8100087101568.00     
 Combining           29  size         2226  flops    8349329031432.83     
 Combining           30  size         2226  flops    8071018063718.40     
 Combining           31  size         2256  flops    8130732744439.74     
 Combining           32  size         2268  flops    8003008282752.00     
 Combining           33  size         2340  flops    8523299048727.27     
 Combining           34  size         2376  flops    8660330894998.59     
 Combining           35  size         2436  flops    9066463167283.20     
 Combining           36  size         2484  flops    9346012720128.00     
 Combining           37  size         2484  flops    9093417781746.16     
 Combining           38  size         2748  flops    11987832953694.3     
 Combining           39  size         2868  flops    13278436100883.7     
 Combining           40  size         2886  flops    13191770371852.8     
 Combining           41  size         2886  flops    12870019874978.3     
 Combining           42  size         3018  flops    14367543144192.0     
 Combining           43  size         3078  flops    14887147280872.2     
 Combining           44  size         3144  flops    15504902144744.7     
 Combining           45  size         3240  flops    16591918694400.0     
 Combining           46  size         3252  flops    16412240528339.5     
 Combining           47  size         3252  flops    16063043921353.5     
 Combining           48  size         3270  flops    15991018092000.0     
 Combining           49  size         3276  flops    15751056642048.0     
 Combining           50  size         3276  flops    15436035509207.0     
 Combining           51  size         3288  flops    15300278799179.3     
 Combining           52  size         3288  flops    15006042668425.8     
 Combining           53  size         3312  flops    15047668278948.2     
 Combining           54  size         3312  flops    14769007755264.0     
 Combining           55  size         3318  flops    14579430152350.3     
 Combining           56  size         3318  flops    14319083185344.0     
 Combining           57  size         3318  flops    14067871199636.2     
 Combining           58  size         3318  flops    13825321696194.2     
 Combining           59  size         3318  flops    13590994209818.0     
 Combining           60  size         3318  flops    13364477639654.4     
 Combining           61  size         3366  flops    13724185957065.4     
 Combining           62  size         3366  flops    13502828119048.3     
 Combining           63  size         3372  flops    13359685742592.0     
 Combining           64  size         3384  flops    13291842396672.0     
 Combining           65  size         3456  flops    13940615173797.4     
 Combining           66  size         3492  flops    14162922007645.1     
 Combining           67  size         3552  flops    14683113728519.6     
 Combining           68  size         3600  flops    15061654588235.3     
 Combining           69  size         3600  flops    14843369739130.4     
 Combining           70  size         3864  flops    18092034500198.4     
 Combining           71  size         3984  flops    19551214234205.7     
 Combining           72  size         4002  flops    19542172859328.0     
 Combining           73  size         4002  flops    19274471861255.0     
 Combining           74  size         4134  flops    20958190866743.4     
 Combining           75  size         4194  flops    21592260395274.2     
 Combining           76  size         4260  flops    22330029615157.9     
 Combining           77  size         4356  flops    23563889750016.0     
 Combining           78  size         4368  flops    23454564876288.0     
 Combining           79  size         4368  flops    23157671650005.9     
 Combining           80  size         4386  flops    23152078646726.4     
 Combining           81  size         4392  flops    22960221290496.0     
 Combining           82  size         4392  flops    22680218591831.4     
 Combining           83  size         4404  flops    22591128847076.2     
 Combining           84  size         4404  flops    22322186836992.0     
 Combining           85  size         4428  flops    22422188790916.5     
 Combining           86  size         4428  flops    22161465665440.7     
 Combining           87  size         4434  flops    21995908668963.3     
 Combining           88  size         4434  flops    21745955161361.5     
 Combining           89  size         4434  flops    21501618586514.7     
 Combining           90  size         4434  flops    21262711713331.2     
 Combining           91  size         4434  flops    21029055540657.2     
 Using            1  block columns to construct a submatrix
 Threads(OMP/MKL):            1 /           1
 Rank           0 processing submatrix           1 size         540
 Rank           0 processing submatrix           2 size         546
 Rank           0 processing submatrix           3 size         552
 Rank           0 processing submatrix           4 size         564
 Rank           0 processing submatrix           5 size         570
 Rank           0 processing submatrix           6 size         540
 Rank           0 processing submatrix           7 size         576
 Rank           0 processing submatrix           8 size         582
 Rank           0 processing submatrix           9 size         594
 Rank           0 processing submatrix          10 size         582
 Rank           0 processing submatrix          11 size         582
 Rank           0 processing submatrix          12 size         552
 Rank           0 processing submatrix          13 size         558
 Rank           0 processing submatrix          14 size         570
 Rank           0 processing submatrix          15 size         540
 Rank           0 processing submatrix          16 size         576
 Rank           0 processing submatrix          17 size         534
 Rank           0 processing submatrix          18 size         516
 Rank           0 processing submatrix          19 size         570
 Rank           0 processing submatrix          20 size         552
 Rank           0 processing submatrix          21 size         564
 Rank           0 processing submatrix          22 size         564
 Rank           0 processing submatrix          23 size         594
 Rank           0 processing submatrix          24 size         564
 Rank           0 processing submatrix          25 size         522
 Rank           0 processing submatrix          26 size         546
 Rank           0 processing submatrix          27 size         570
 Rank           0 processing submatrix          28 size         540
 Rank           0 processing submatrix          29 size         564
 Rank           0 processing submatrix          30 size         600
 Rank           0 processing submatrix          31 size         534
 Rank           0 processing submatrix          32 size         594
 Rank           0 processing submatrix          33 size         540
 Rank           0 processing submatrix          34 size         546
 Rank           0 processing submatrix          35 size         552
 Rank           0 processing submatrix          36 size         564
 Rank           0 processing submatrix          37 size         570
 Rank           0 processing submatrix          38 size         540
 Rank           0 processing submatrix          39 size         576
 Rank           0 processing submatrix          40 size         582
 Rank           0 processing submatrix          41 size         594
 Rank           0 processing submatrix          42 size         582
 Rank           0 processing submatrix          43 size         582
 Rank           0 processing submatrix          44 size         552
 Rank           0 processing submatrix          45 size         558
 Rank           0 processing submatrix          46 size         570
 Rank           0 processing submatrix          47 size         540
 Rank           0 processing submatrix          48 size         576
 Rank           0 processing submatrix          49 size         534
 Rank           0 processing submatrix          50 size         516
 Rank           0 processing submatrix          51 size         570
 Rank           0 processing submatrix          52 size         552
 Rank           0 processing submatrix          53 size         564
 Rank           0 processing submatrix          54 size         564
 Rank           0 processing submatrix          55 size         594
 Rank           0 processing submatrix          56 size         564
 Rank           0 processing submatrix          57 size         522
 Rank           0 processing submatrix          58 size         546
 Rank           0 processing submatrix          59 size         570
 Rank           0 processing submatrix          60 size         540
 Rank           0 processing submatrix          61 size         564
 Rank           0 processing submatrix          62 size         600
 Rank           0 processing submatrix          63 size         534
 Rank           0 processing submatrix          64 size         594
 Rank           0 processing submatrix          65 size         540
 Rank           0 processing submatrix          66 size         546
 Rank           0 processing submatrix          67 size         552
 Rank           0 processing submatrix          68 size         564
 Rank           0 processing submatrix          69 size         570
 Rank           0 processing submatrix          70 size         540
 Rank           0 processing submatrix          71 size         576
 Rank           0 processing submatrix          72 size         582
 Rank           0 processing submatrix          73 size         594
 Rank           0 processing submatrix          74 size         582
 Rank           0 processing submatrix          75 size         582
 Rank           0 processing submatrix          76 size         552
 Rank           0 processing submatrix          77 size         558
 Rank           0 processing submatrix          78 size         570
 Rank           0 processing submatrix          79 size         540
 Rank           0 processing submatrix          80 size         576
 Rank           0 processing submatrix          81 size         534
 Rank           0 processing submatrix          82 size         516
 Rank           0 processing submatrix          83 size         570
 Rank           0 processing submatrix          84 size         552
 Rank           0 processing submatrix          85 size         564
 Rank           0 processing submatrix          86 size         564
 Rank           0 processing submatrix          87 size         594
 Rank           0 processing submatrix          88 size         564
 Rank           0 processing submatrix          89 size         522
 Rank           0 processing submatrix          90 size         546
 Rank           0 processing submatrix          91 size         570
 Rank           0 processing submatrix          92 size         540
 matrix_sign_submatrix took    7.70083594322205     
 Deviation from idempotency:       0.018097473361
 Energy Tr(DK)  -19320.884877172652
 Density matrix:  iter, mu, trace error:  1   0.070000000     0.001390455
 
 SCF     1   -187380.407888228   -187380.407888228   19.996606
 
 SCF not converged! 

 !-----------------------------------------------------------------------------!
                           Hirshfeld Charges

  #Atom  Element  Kind  Ref Charge     Population                    Net charge
      1       O      1       6.000          7.342                        -1.342
      2       H      2       1.000          0.330                         0.670
      3       H      2       1.000          0.327                         0.673
      4       O      1       6.000          7.350                        -1.350
      5       H      2       1.000          0.328                         0.672
      6       H      2       1.000          0.330                         0.670
      7       O      1       6.000          7.340                        -1.340
      8       H      2       1.000          0.328                         0.672
      9       H      2       1.000          0.328                         0.672
     10       O      1       6.000          7.343                        -1.343
     11       H      2       1.000          0.328                         0.672
     12       H      2       1.000          0.328                         0.672
     13       O      1       6.000          7.331                        -1.331
     14       H      2       1.000          0.330                         0.670
     15       H      2       1.000          0.330                         0.670
     16       O      1       6.000          7.351                        -1.351
     17       H      2       1.000          0.328                         0.672
     18       H      2       1.000          0.327                         0.673
     19       O      1       6.000          7.327                        -1.327
     20       H      2       1.000          0.327                         0.673
     21       H      2       1.000          0.329                         0.671
     22       O      1       6.000          7.337                        -1.337
     23       H      2       1.000          0.329                         0.671
     24       H      2       1.000          0.328                         0.672
     25       O      1       6.000          7.356                        -1.356
     26       H      2       1.000          0.329                         0.671
     27       H      2       1.000          0.329                         0.671
     28       O      1       6.000          7.346                        -1.346
     29       H      2       1.000          0.328                         0.672
     30       H      2       1.000          0.329                         0.671
     31       O      1       6.000          7.343                        -1.343
     32       H      2       1.000          0.330                         0.670
     33       H      2       1.000          0.329                         0.671
     34       O      1       6.000          7.376                        -1.376
     35       H      2       1.000          0.328                         0.672
     36       H      2       1.000          0.328                         0.672
     37       O      1       6.000          7.344                        -1.344
     38       H      2       1.000          0.331                         0.669
     39       H      2       1.000          0.328                         0.672
     40       O      1       6.000          7.344                        -1.344
     41       H      2       1.000          0.327                         0.673
     42       H      2       1.000          0.327                         0.673
     43       O      1       6.000          7.355                        -1.355
     44       H      2       1.000          0.329                         0.671
     45       H      2       1.000          0.330                         0.670
     46       O      1       6.000          7.328                        -1.328
     47       H      2       1.000          0.327                         0.673
     48       H      2       1.000          0.330                         0.670
     49       O      1       6.000          7.328                        -1.328
     50       H      2       1.000          0.328                         0.672
     51       H      2       1.000          0.329                         0.671
     52       O      1       6.000          7.361                        -1.361
     53       H      2       1.000          0.329                         0.671
     54       H      2       1.000          0.329                         0.671
     55       O      1       6.000          7.340                        -1.340
     56       H      2       1.000          0.328                         0.672
     57       H      2       1.000          0.329                         0.671
     58       O      1       6.000          7.341                        -1.341
     59       H      2       1.000          0.329                         0.671
     60       H      2       1.000          0.330                         0.670
     61       O      1       6.000          7.336                        -1.336
     62       H      2       1.000          0.327                         0.673
     63       H      2       1.000          0.329                         0.671
     64       O      1       6.000          7.352                        -1.352
     65       H      2       1.000          0.329                         0.671
     66       H      2       1.000          0.328                         0.672
     67       O      1       6.000          7.340                        -1.340
     68       H      2       1.000          0.329                         0.671
     69       H      2       1.000          0.327                         0.673
     70       O      1       6.000          7.345                        -1.345
     71       H      2       1.000          0.328                         0.672
     72       H      2       1.000          0.329                         0.671
     73       O      1       6.000          7.339                        -1.339
     74       H      2       1.000          0.329                         0.671
     75       H      2       1.000          0.328                         0.672
     76       O      1       6.000          7.340                        -1.340
     77       H      2       1.000          0.328                         0.672
     78       H      2       1.000          0.329                         0.671
     79       O      1       6.000          7.342                        -1.342
     80       H      2       1.000          0.327                         0.673
     81       H      2       1.000          0.329                         0.671
     82       O      1       6.000          7.336                        -1.336
     83       H      2       1.000          0.330                         0.670
     84       H      2       1.000          0.329                         0.671
     85       O      1       6.000          7.323                        -1.323
     86       H      2       1.000          0.327                         0.673
     87       H      2       1.000          0.330                         0.670
     88       O      1       6.000          7.347                        -1.347
     89       H      2       1.000          0.327                         0.673
     90       H      2       1.000          0.328                         0.672
     91       O      1       6.000          7.340                        -1.340
     92       H      2       1.000          0.328                         0.672
     93       H      2       1.000          0.330                         0.670
     94       O      1       6.000          7.349                        -1.349
     95       H      2       1.000          0.328                         0.672
     96       H      2       1.000          0.328                         0.672
     97       O      1       6.000          7.342                        -1.342
     98       H      2       1.000          0.330                         0.670
     99       H      2       1.000          0.327                         0.673
    100       O      1       6.000          7.350                        -1.350
    101       H      2       1.000          0.328                         0.672
    102       H      2       1.000          0.330                         0.670
    103       O      1       6.000          7.340                        -1.340
    104       H      2       1.000          0.328                         0.672
    105       H      2       1.000          0.328                         0.672
    106       O      1       6.000          7.343                        -1.343
    107       H      2       1.000          0.328                         0.672
    108       H      2       1.000          0.328                         0.672
    109       O      1       6.000          7.331                        -1.331
    110       H      2       1.000          0.330                         0.670
    111       H      2       1.000          0.330                         0.670
    112       O      1       6.000          7.352                        -1.352
    113       H      2       1.000          0.328                         0.672
    114       H      2       1.000          0.327                         0.673
    115       O      1       6.000          7.327                        -1.327
    116       H      2       1.000          0.327                         0.673
    117       H      2       1.000          0.329                         0.671
    118       O      1       6.000          7.337                        -1.337
    119       H      2       1.000          0.329                         0.671
    120       H      2       1.000          0.328                         0.672
    121       O      1       6.000          7.356                        -1.356
    122       H      2       1.000          0.329                         0.671
    123       H      2       1.000          0.329                         0.671
    124       O      1       6.000          7.346                        -1.346
    125       H      2       1.000          0.328                         0.672
    126       H      2       1.000          0.329                         0.671
    127       O      1       6.000          7.343                        -1.343
    128       H      2       1.000          0.330                         0.670
    129       H      2       1.000          0.329                         0.671
    130       O      1       6.000          7.376                        -1.376
    131       H      2       1.000          0.328                         0.672
    132       H      2       1.000          0.328                         0.672
    133       O      1       6.000          7.344                        -1.344
    134       H      2       1.000          0.331                         0.669
    135       H      2       1.000          0.328                         0.672
    136       O      1       6.000          7.344                        -1.344
    137       H      2       1.000          0.327                         0.673
    138       H      2       1.000          0.327                         0.673
    139       O      1       6.000          7.355                        -1.355
    140       H      2       1.000          0.329                         0.671
    141       H      2       1.000          0.330                         0.670
    142       O      1       6.000          7.328                        -1.328
    143       H      2       1.000          0.327                         0.673
    144       H      2       1.000          0.330                         0.670
    145       O      1       6.000          7.328                        -1.328
    146       H      2       1.000          0.328                         0.672
    147       H      2       1.000          0.329                         0.671
    148       O      1       6.000          7.361                        -1.361
    149       H      2       1.000          0.329                         0.671
    150       H      2       1.000          0.329                         0.671
    151       O      1       6.000          7.340                        -1.340
    152       H      2       1.000          0.328                         0.672
    153       H      2       1.000          0.329                         0.671
    154       O      1       6.000          7.341                        -1.341
    155       H      2       1.000          0.329                         0.671
    156       H      2       1.000          0.330                         0.670
    157       O      1       6.000          7.336                        -1.336
    158       H      2       1.000          0.327                         0.673
    159       H      2       1.000          0.329                         0.671
    160       O      1       6.000          7.352                        -1.352
    161       H      2       1.000          0.329                         0.671
    162       H      2       1.000          0.328                         0.672
    163       O      1       6.000          7.340                        -1.340
    164       H      2       1.000          0.329                         0.671
    165       H      2       1.000          0.327                         0.673
    166       O      1       6.000          7.345                        -1.345
    167       H      2       1.000          0.328                         0.672
    168       H      2       1.000          0.329                         0.671
    169       O      1       6.000          7.339                        -1.339
    170       H      2       1.000          0.329                         0.671
    171       H      2       1.000          0.328                         0.672
    172       O      1       6.000          7.340                        -1.340
    173       H      2       1.000          0.328                         0.672
    174       H      2       1.000          0.329                         0.671
    175       O      1       6.000          7.342                        -1.342
    176       H      2       1.000          0.327                         0.673
    177       H      2       1.000          0.329                         0.671
    178       O      1       6.000          7.336                        -1.336
    179       H      2       1.000          0.330                         0.670
    180       H      2       1.000          0.329                         0.671
    181       O      1       6.000          7.323                        -1.323
    182       H      2       1.000          0.327                         0.673
    183       H      2       1.000          0.330                         0.670
    184       O      1       6.000          7.347                        -1.347
    185       H      2       1.000          0.327                         0.673
    186       H      2       1.000          0.328                         0.672
    187       O      1       6.000          7.340                        -1.340
    188       H      2       1.000          0.328                         0.672
    189       H      2       1.000          0.330                         0.670
    190       O      1       6.000          7.349                        -1.349
    191       H      2       1.000          0.328                         0.672
    192       H      2       1.000          0.328                         0.672
    193       O      1       6.000          7.342                        -1.342
    194       H      2       1.000          0.330                         0.670
    195       H      2       1.000          0.327                         0.673
    196       O      1       6.000          7.350                        -1.350
    197       H      2       1.000          0.328                         0.672
    198       H      2       1.000          0.330                         0.670
    199       O      1       6.000          7.340                        -1.340
    200       H      2       1.000          0.328                         0.672
    201       H      2       1.000          0.328                         0.672
    202       O      1       6.000          7.343                        -1.343
    203       H      2       1.000          0.328                         0.672
    204       H      2       1.000          0.328                         0.672
    205       O      1       6.000          7.331                        -1.331
    206       H      2       1.000          0.330                         0.670
    207       H      2       1.000          0.330                         0.670
    208       O      1       6.000          7.352                        -1.352
    209       H      2       1.000          0.328                         0.672
    210       H      2       1.000          0.327                         0.673
    211       O      1       6.000          7.327                        -1.327
    212       H      2       1.000          0.327                         0.673
    213       H      2       1.000          0.329                         0.671
    214       O      1       6.000          7.337                        -1.337
    215       H      2       1.000          0.329                         0.671
    216       H      2       1.000          0.328                         0.672
    217       O      1       6.000          7.356                        -1.356
    218       H      2       1.000          0.329                         0.671
    219       H      2       1.000          0.329                         0.671
    220       O      1       6.000          7.346                        -1.346
    221       H      2       1.000          0.328                         0.672
    222       H      2       1.000          0.329                         0.671
    223       O      1       6.000          7.343                        -1.343
    224       H      2       1.000          0.330                         0.670
    225       H      2       1.000          0.329                         0.671
    226       O      1       6.000          7.376                        -1.376
    227       H      2       1.000          0.328                         0.672
    228       H      2       1.000          0.328                         0.672
    229       O      1       6.000          7.344                        -1.344
    230       H      2       1.000          0.331                         0.669
    231       H      2       1.000          0.328                         0.672
    232       O      1       6.000          7.344                        -1.344
    233       H      2       1.000          0.327                         0.673
    234       H      2       1.000          0.327                         0.673
    235       O      1       6.000          7.355                        -1.355
    236       H      2       1.000          0.329                         0.671
    237       H      2       1.000          0.330                         0.670
    238       O      1       6.000          7.328                        -1.328
    239       H      2       1.000          0.327                         0.673
    240       H      2       1.000          0.330                         0.670
    241       O      1       6.000          7.328                        -1.328
    242       H      2       1.000          0.328                         0.672
    243       H      2       1.000          0.329                         0.671
    244       O      1       6.000          7.361                        -1.361
    245       H      2       1.000          0.329                         0.671
    246       H      2       1.000          0.329                         0.671
    247       O      1       6.000          7.340                        -1.340
    248       H      2       1.000          0.328                         0.672
    249       H      2       1.000          0.329                         0.671
    250       O      1       6.000          7.341                        -1.341
    251       H      2       1.000          0.329                         0.671
    252       H      2       1.000          0.330                         0.670
    253       O      1       6.000          7.336                        -1.336
    254       H      2       1.000          0.327                         0.673
    255       H      2       1.000          0.329                         0.671
    256       O      1       6.000          7.352                        -1.352
    257       H      2       1.000          0.330                         0.670
    258       H      2       1.000          0.328                         0.672
    259       O      1       6.000          7.340                        -1.340
    260       H      2       1.000          0.329                         0.671
    261       H      2       1.000          0.327                         0.673
    262       O      1       6.000          7.345                        -1.345
    263       H      2       1.000          0.328                         0.672
    264       H      2       1.000          0.329                         0.671
    265       O      1       6.000          7.339                        -1.339
    266       H      2       1.000          0.329                         0.671
    267       H      2       1.000          0.328                         0.672
    268       O      1       6.000          7.340                        -1.340
    269       H      2       1.000          0.328                         0.672
    270       H      2       1.000          0.329                         0.671
    271       O      1       6.000          7.342                        -1.342
    272       H      2       1.000          0.327                         0.673
    273       H      2       1.000          0.329                         0.671
    274       O      1       6.000          7.336                        -1.336
    275       H      2       1.000          0.330                         0.670
    276       H      2       1.000          0.329                         0.671
    277       O      1       6.000          7.323                        -1.323
    278       H      2       1.000          0.327                         0.673
    279       H      2       1.000          0.330                         0.670
    280       O      1       6.000          7.347                        -1.347
    281       H      2       1.000          0.327                         0.673
    282       H      2       1.000          0.328                         0.672
    283       O      1       6.000          7.340                        -1.340
    284       H      2       1.000          0.328                         0.672
    285       H      2       1.000          0.330                         0.670
    286       O      1       6.000          7.349                        -1.349
    287       H      2       1.000          0.328                         0.672
    288       H      2       1.000          0.328                         0.672
    289       O      1       6.000          7.342                        -1.342
    290       H      2       1.000          0.330                         0.670
    291       H      2       1.000          0.327                         0.673
    292       O      1       6.000          7.350                        -1.350
    293       H      2       1.000          0.328                         0.672
    294       H      2       1.000          0.330                         0.670
    295       O      1       6.000          7.340                        -1.340
    296       H      2       1.000          0.328                         0.672
    297       H      2       1.000          0.328                         0.672
    298       O      1       6.000          7.343                        -1.343
    299       H      2       1.000          0.328                         0.672
    300       H      2       1.000          0.328                         0.672
    301       O      1       6.000          7.331                        -1.331
    302       H      2       1.000          0.330                         0.670
    303       H      2       1.000          0.330                         0.670
    304       O      1       6.000          7.351                        -1.351
    305       H      2       1.000          0.328                         0.672
    306       H      2       1.000          0.327                         0.673
    307       O      1       6.000          7.327                        -1.327
    308       H      2       1.000          0.327                         0.673
    309       H      2       1.000          0.329                         0.671
    310       O      1       6.000          7.337                        -1.337
    311       H      2       1.000          0.329                         0.671
    312       H      2       1.000          0.328                         0.672
    313       O      1       6.000          7.356                        -1.356
    314       H      2       1.000          0.329                         0.671
    315       H      2       1.000          0.329                         0.671
    316       O      1       6.000          7.346                        -1.346
    317       H      2       1.000          0.328                         0.672
    318       H      2       1.000          0.329                         0.671
    319       O      1       6.000          7.343                        -1.343
    320       H      2       1.000          0.330                         0.670
    321       H      2       1.000          0.329                         0.671
    322       O      1       6.000          7.376                        -1.376
    323       H      2       1.000          0.328                         0.672
    324       H      2       1.000          0.328                         0.672
    325       O      1       6.000          7.344                        -1.344
    326       H      2       1.000          0.331                         0.669
    327       H      2       1.000          0.328                         0.672
    328       O      1       6.000          7.344                        -1.344
    329       H      2       1.000          0.327                         0.673
    330       H      2       1.000          0.327                         0.673
    331       O      1       6.000          7.355                        -1.355
    332       H      2       1.000          0.329                         0.671
    333       H      2       1.000          0.330                         0.670
    334       O      1       6.000          7.328                        -1.328
    335       H      2       1.000          0.327                         0.673
    336       H      2       1.000          0.330                         0.670
[...]
 dbcsr_copy                         318  9.9    0.024    0.078    0.084    0.138
 mp_irecv_dm3                       114 12.3    0.017    0.136    0.017    0.136
 setup_rec_index_2d                  94  9.2    0.102    0.136    0.102    0.136
 pw_integral_ab                       2 10.5    0.110    0.112    0.123    0.135
 rs_pw_transfer_PW2RS_20              2 13.5    0.015    0.023    0.103    0.135
 mp_sum_i                            14  5.4    0.133    0.135    0.133    0.135
 Gram_Schmidt_ortho_d                95 10.0    0.002    0.016    0.093    0.131
 pw_axpy                             10  9.5    0.125    0.131    0.125    0.131
 matrix_ls_to_qs                      1  6.0    0.000    0.000    0.113    0.130
 mp_bcast_b                          98 10.0    0.103    0.129    0.103    0.129
 dbcsr_reserve_blocks                15  9.7    0.112    0.116    0.123    0.128
 build_neighbor_lists_sac_ppl         1  5.0    0.118    0.127    0.118    0.127
 restraint_control                    1  2.0    0.000    0.002    0.126    0.127
 topology_connectivity_pack           1  3.0    0.000    0.000    0.117    0.126
 topology_generate_bond               1  4.0    0.000    0.000    0.122    0.125
 mp_sum_im3                           4  9.0    0.048    0.125    0.048    0.125
 mp_isend_dm3                       114 12.3    0.043    0.121    0.043    0.121
 mp_irecv_dv                       6114 11.2    0.021    0.117    0.021    0.117
 matrix_decluster                     1  7.0    0.000    0.001    0.097    0.113
 dbcsr_sort_data                    558 12.0    0.075    0.111    0.075    0.111
 dbcsr_special_finalize             517 10.2    0.002    0.003    0.087    0.109
 dbcsr_merge_single_wm              517 11.2    0.018    0.029    0.084    0.105
 compute_evals                        4  9.2    0.086    0.098    0.086    0.098
 build_neighbor_lists_sap_ppnl        1  5.0    0.084    0.095    0.084    0.095
 coordinate_control                   1  3.0    0.000    0.000    0.072    0.093
 coordinate_control_READ_COORDI       1  4.0    0.018    0.019    0.072    0.093
 create_qs_kind_set                   1  2.0    0.001    0.002    0.086    0.089
 read_qs_kind                         2  3.0    0.021    0.025    0.085    0.089
 topology_generate_bond_3             1  5.0    0.001    0.005    0.073    0.086
 mp_bcast_i                         106  2.9    0.074    0.085    0.074    0.085
 mp_alltoall_l11v                     1  9.0    0.076    0.081    0.076    0.081
 build_fist_neighbor_lists            1  6.0    0.001    0.001    0.072    0.081
 calculate_atomic_block_dm            1  7.0    0.020    0.030    0.065    0.079
 mp_alltoall_i                        1  9.0    0.037    0.078    0.037    0.078
 dbcsr_add_d                         12  7.5    0.000    0.000    0.028    0.076
 dbcsr_add_anytype                   12  8.5    0.016    0.056    0.028    0.076
 dbcsr_new_transposed                 4  7.5    0.017    0.043    0.074    0.076
 read_atoms_input                     1  5.0    0.053    0.074    0.053    0.074
 dbcsr_copy_into_existing             2  6.5    0.069    0.072    0.070    0.073
 mp_allgatherv_iv                     2  9.0    0.067    0.073    0.067    0.073
 mp_sum_iv                           43  9.3    0.058    0.073    0.058    0.073
 mp_alltoall_i22                      9  9.0    0.053    0.072    0.053    0.072
 buffer_matrices_ensure_size         94  9.2    0.059    0.071    0.059    0.071
 parser_read_line                  2946  4.0    0.001    0.001    0.064    0.071
 mp_allgather_i                       1  9.0    0.037    0.070    0.037    0.070
 parser_read_line_low                 5  5.0    0.003    0.054    0.063    0.070
 dbcsr_sort_indices                 618 11.6    0.042    0.070    0.042    0.070
 build_neighbor_lists                 1  7.0    0.066    0.070    0.066    0.070
 build_neighbor_lists_sab_orb         1  5.0    0.037    0.069    0.037    0.069
 broadcast_input_information          5  6.0    0.000    0.000    0.060    0.067
 topology_connectivity_pack_6         1  4.0    0.053    0.066    0.053    0.066
 distribute_molecules_2d              1  4.0    0.010    0.011    0.028    0.064
 merge_index                         88 10.7    0.048    0.064    0.048    0.064
 mp_bcast_dv                         97 12.1    0.028    0.063    0.028    0.063
 dbcsr_data_new                    2524 10.9    0.050    0.060    0.050    0.060
 dbcsr_redistribute                   4  8.5    0.014    0.018    0.056    0.059
 rs_pw_transfer_RS2PW_20              2 10.5    0.016    0.025    0.047    0.058
 mp_max_i                           385  1.7    0.051    0.057    0.051    0.057
 rs_pw_transfer_PW2RS_10              2 13.5    0.006    0.013    0.046    0.057
 pw_grid_distribute                   4  8.0    0.046    0.052    0.055    0.056
 build_neighbor_lists_sab_all         1  5.0    0.048    0.055    0.048    0.055
 make_basic_spatial_distributio       1  5.0    0.019    0.054    0.019    0.054
 atom_int_setup                       2  8.0    0.035    0.052    0.035    0.052
 pw_poisson_rebuild                   2 10.5    0.039    0.049    0.039    0.049
 multiply_cannon_multrec_finali      47 11.2    0.000    0.000    0.034    0.049
 dbcsr_mm_multrec_finalize           47 12.2    0.008    0.019    0.034    0.049
 dbcsr_make_untransposed_blocks      47  8.2    0.044    0.048    0.044    0.049
 dbcsr_filter_anytype                11  7.0    0.035    0.038    0.042    0.046
 multrec_filtering                   39 13.3    0.026    0.042    0.026    0.042
 dbcsr_trace_sd                       2  6.5    0.008    0.008    0.029    0.041
 topology_connectivity_pack_4         1  4.0    0.037    0.038    0.037    0.038
 mp_bcast_av                        449  1.0    0.003    0.004    0.027    0.037
 dbcsr_finalize_lib                   1  2.0    0.030    0.035    0.030    0.035
 init_interaction_radii               1  3.0    0.033    0.034    0.033    0.034
 create_fast_col_vec_access         194 11.1    0.001    0.001    0.027    0.033
 create_fast_col_vec_access_d       194 12.1    0.026    0.032    0.027    0.033
 dbcsr_trace_d                        2  7.5    0.000    0.000    0.021    0.032
 mp_isend_iv                       5463 11.2    0.025    0.032    0.025    0.032
 mp_alltoall_i11v                    23  9.1    0.025    0.031    0.025    0.031
 topology_generate_bond_2             1  5.0    0.031    0.031    0.031    0.031
 mp_max_l                            22  1.8    0.019    0.031    0.019    0.031
 arnoldi_init                         2  9.5    0.002    0.004    0.025    0.028
 pw_scale                             2  9.5    0.019    0.028    0.019    0.028
 mp_maxloc_dv                       899  1.0    0.028    0.028    0.028    0.028
 dbcsr_mm_multrec_init               47  9.2    0.001    0.005    0.012    0.028
 dbcsr_mm_csr_init                   47 10.2    0.003    0.021    0.011    0.028
 dbcsr_data_release                4423 10.9    0.015    0.027    0.015    0.027
 load_balance_replicated              1  8.0    0.005    0.007    0.027    0.027
 mp_bcast_iv                         12  6.6    0.018    0.026    0.018    0.026
 dbcsr_scale_anytype                 30  9.0    0.015    0.025    0.015    0.026
 rs_pw_transfer_RS2PW_10              2 10.5    0.006    0.010    0.020    0.024
 setup_buffer_matrices               94  9.2    0.001    0.002    0.018    0.023
 topology_connectivity_pack_3         1  4.0    0.021    0.023    0.021    0.023
 quick_finalize                      12  9.5    0.001    0.010    0.014    0.022
 connectivity_control_check_ele       1  4.0    0.011    0.022    0.011    0.022
 create_fast_row_vec_access         194 11.1    0.001    0.001    0.019    0.022
 create_fast_row_vec_access_d       194 12.1    0.017    0.021    0.018    0.021
 dbcsr_data_copy_aa2                 21 11.7    0.013    0.020    0.013    0.020
 dbcsr_distribution_new             106  8.3    0.008    0.020    0.008    0.020
 dbcsr_make_index_exist            1406 11.3    0.013    0.019    0.013    0.019
 dbcsr_scale_d                       18  7.7    0.000    0.000    0.010    0.019
 DGKS_ortho_d                        95 10.0    0.001    0.006    0.005    0.018
 ls_scf_create                        1  2.0    0.008    0.008    0.012    0.017
 dbcsr_make_dbcsr_index             637 11.9    0.013    0.017    0.013    0.017
 external_control                     2  5.0    0.000    0.001    0.009    0.017
 sort_neighbor_lists                  1  7.0    0.005    0.017    0.005    0.017
 build_neighbor_lists_sab_core        1  5.0    0.016    0.017    0.016    0.017
 calculate_ecore_overlap              1  4.0    0.011    0.016    0.012    0.017
 topology_generate_bond_1             1  5.0    0.009    0.016    0.009    0.016
 mp_bcast_im                          4 10.2    0.007    0.016    0.007    0.016
 dbcsr_add_on_diag                   20  7.5    0.003    0.005    0.010    0.015
 dbcsr_dot_sd                         5  9.2    0.010    0.012    0.015    0.015
 qs_env_rebuild_rho                   1  5.0    0.000    0.000    0.010    0.014
 qs_rho_rebuild                       1  6.0    0.000    0.002    0.010    0.014
 dbcsr_destroy                     1371  9.0    0.004    0.010    0.009    0.014
 evaluate_core_matrix_traces          2  7.5    0.000    0.000    0.012    0.012
 calculate_ptrace_kp                  4  8.5    0.000    0.000    0.012    0.012
 topology_generate_bond_6             1  5.0    0.008    0.012    0.008    0.012
 fill_hash_tables                    47 11.2    0.007    0.012    0.007    0.012
 topology_generate_molecule           1  4.0    0.009    0.010    0.009    0.010
 mp_sum_im                            5  6.8    0.010    0.010    0.010    0.010
 write_qs_kind_set                    1  3.0    0.000    0.010    0.000    0.010
 dbcsr_make_index_list              517  9.2    0.005    0.010    0.005    0.010
 ls_scf_init_read_write_input         1  3.0    0.004    0.010    0.004    0.010
 write_symmetry                       1  3.0    0.009    0.009    0.009    0.009
 mp_bcast_am                          5  7.0    0.006    0.008    0.007    0.009
 dbcsr_work_destroy_all             617 11.0    0.001    0.003    0.006    0.008
 topology_connectivity_pack_2         1  4.0    0.004    0.008    0.004    0.008
 mp_max_d                             1  1.0    0.005    0.008    0.005    0.008
 mp_irecv_iv                       5558 11.1    0.004    0.007    0.004    0.007
 rs_grid_create_descriptor            4  6.0    0.002    0.003    0.006    0.007
 topology_molecules_check             1  4.0    0.006    0.007    0.006    0.007
 mp_comm_dup                          8  6.5    0.006    0.007    0.006    0.007
 dbcsr_work_create                  617 10.0    0.003    0.005    0.004    0.006
 dbcsr_add_wm_from_matrix             2  7.5    0.000    0.000    0.004    0.005
 dbcsr_fill_wm_from_matrix            2  8.5    0.004    0.005    0.004    0.005
 topology_coordinate_pack             1  3.0    0.000    0.000    0.005    0.005
 dbcsr_get_data_size_used           100  9.7    0.004    0.005    0.004    0.005
 calculate_atom                       2  8.0    0.000    0.000    0.005    0.005
 calculate_atom_restricted            2  9.0    0.005    0.005    0.005    0.005
 dbcsr_iterator_start              1105 11.7    0.002    0.004    0.003    0.005
 mp_sync                              4  7.0    0.003    0.005    0.003    0.005
 qs_scf_post_local_energy             1  6.0    0.000    0.005    0.000    0.005
 mp_sum_lv                            7  5.4    0.002    0.004    0.002    0.004
 dbcsr_make_index_local_row         517  9.2    0.003    0.004    0.003    0.004
 mp_allgather_l                       9  9.4    0.003    0.004    0.003    0.004
 dbcsr_get_local_rows                47  8.2    0.001    0.004    0.001    0.004
 topology_generate_bond_4             1  5.0    0.002    0.003    0.002    0.003
 dbcsr_set                          397 11.5    0.000    0.000    0.002    0.003
 ls_scf_release                       1  2.0    0.001    0.003    0.001    0.003
 create_col_vec_from_matrix           6  9.3    0.000    0.001    0.002    0.003
 mp_comm_free                        13  2.6    0.000    0.003    0.000    0.003
 topology_coordinate_pack_3           1  4.0    0.003    0.003    0.003    0.003
 topology_generate_bend               1  4.0    0.000    0.003    0.000    0.003
 mp_cart_create                       5  9.2    0.003    0.003    0.003    0.003
 dbcsr_zero                         397 12.5    0.002    0.003    0.002    0.003
 topology_muc                         1  4.0    0.002    0.002    0.002    0.002
 distribute_molecules_1d              1  3.0    0.001    0.002    0.001    0.002
 dbcsr_iterator_stop               1105 11.7    0.001    0.002    0.001    0.002
 pw_pool_create_pw                   48 10.2    0.000    0.001    0.001    0.002
 matrix_ls_create                     1  5.0    0.001    0.002    0.001    0.002
 init_cube_info                       4  6.0    0.001    0.002    0.001    0.002
 write_dft_control                    1  3.0    0.000    0.001    0.000    0.001
 atom_ppint_setup                     2  8.0    0.001    0.001    0.001    0.001
 pw_create                           21 10.7    0.001    0.001    0.001    0.001
 dbcsr_mm_sched_init                 47 11.2    0.001    0.001    0.001    0.001
 transpose_index_local                4  8.5    0.000    0.000    0.001    0.001
 mp_max_r                             1  2.0    0.001    0.001    0.001    0.001
 compute_max_radius                   1  6.0    0.001    0.001    0.001    0.001
 create_replicated_col_vec_from       2  9.5    0.000    0.001    0.001    0.001
 dbcsr_index_compact                  7  7.6    0.001    0.001    0.001    0.001
 create_grid_atom                     2  8.0    0.001    0.001    0.001    0.001
 scf_c_read_parameters                1  3.0    0.001    0.001    0.001    0.001
 dbcsr_reserve_all_blocks            10 10.4    0.000    0.000    0.000    0.001
 atom2d_build                         1  5.0    0.001    0.001    0.001    0.001
 dbcsr_iterator_seek               1105 12.7    0.001    0.001    0.001    0.001
 topology_coordinate_pack_7b          1  4.0    0.001    0.001    0.001    0.001
 mp_sum_b                            14  7.4    0.001    0.001    0.001    0.001
 topology_constraint_pack             1  3.0    0.000    0.000    0.001    0.001
 mp_max_lv                            4  8.0    0.001    0.001    0.001    0.001
 check_generate_mol                   1  6.0    0.000    0.001    0.000    0.001
 scf_c_create                         1  3.0    0.000    0.001    0.000    0.001
 read_qs_section                      1  3.0    0.000    0.001    0.000    0.001
 create_replicated_row_vec_from       2  9.5    0.000    0.000    0.000    0.001
 pw_pool_give_back_pw                50 10.9    0.000    0.001    0.000    0.001
 mp_sum_r                             1  2.0    0.000    0.001    0.000    0.001
 topology_coordinate_pack_2           1  4.0    0.000    0.001    0.000    0.001
 pw_grid_allocate                     4  8.0    0.000    0.001    0.000    0.001
 mp_min_lv                            4  8.0    0.000    0.001    0.000    0.001
 topology_set_atm_mass                1  4.0    0.000    0.001    0.000    0.001
 read_tddfpt2_control                 1  3.0    0.000    0.001    0.000    0.001
 write_qs_control                     1  3.0    0.000    0.001    0.000    0.001
 mp_min_i                            12  6.0    0.000    0.001    0.000    0.001
 topology_coordinate_pack_7a          1  4.0    0.000    0.001    0.000    0.001
 rs_grid_create                       8  6.5    0.000    0.001    0.000    0.001
 topology_constraint_pack_3           1  4.0    0.000    0.001    0.000    0.001
 lgrid_allocate_grid                  1  9.0    0.000    0.000    0.000    0.000
 pw_poisson_set                       1  6.0    0.000    0.000    0.000    0.000
 dbcsr_get_local_cols                47  8.2    0.000    0.000    0.000    0.000
 topology_generate_onfo               1  4.0    0.000    0.000    0.000    0.000
 calculate_atom_vxc_lda               2 10.0    0.000    0.000    0.000    0.000
 pw_env_create                        1  5.0    0.000    0.000    0.000    0.000
 release_fast_vec_access            388 11.1    0.000    0.000    0.000    0.000
 topology_constraint_pack_1           1  4.0    0.000    0.000    0.000    0.000
 topology_generate_dihe               1  4.0    0.000    0.000    0.000    0.000
 topology_connectivity_pack_1         1  4.0    0.000    0.000    0.000    0.000
 mp_send_iv                         120  9.0    0.000    0.000    0.000    0.000
 sg_erf                               3  9.0    0.000    0.000    0.000    0.000
 dbcsr_switch_data_area             106  9.3    0.000    0.000    0.000    0.000
 topology_connectivity_pack_9         1  4.0    0.000    0.000    0.000    0.000
 mp_cart_sub                          2 10.0    0.000    0.000    0.000    0.000
 topology_generate_bend_1             1  5.0    0.000    0.000    0.000    0.000
 topology_connectivity_pack_10        1  4.0    0.000    0.000    0.000    0.000
 topology_coordinate_pack_5           1  4.0    0.000    0.000    0.000    0.000
 mp_comm_compare                     24 13.7    0.000    0.000    0.000    0.000
 topology_connectivity_pack_7         1  4.0    0.000    0.000    0.000    0.000
 mp_environ_l                       123  4.7    0.000    0.000    0.000    0.000
 topology_generate_molecule_PAR       1  5.0    0.000    0.000    0.000    0.000
 mp_rank_compare                     21 14.5    0.000    0.000    0.000    0.000
 mp_cart_coords                     480  9.0    0.000    0.000    0.000    0.000
 topology_coordinate_pack_6           1  4.0    0.000    0.000    0.000    0.000
 topology_connectivity_pack_11        1  4.0    0.000    0.000    0.000    0.000
 topology_connectivity_pack_8         1  4.0    0.000    0.000    0.000    0.000
 mp_environ_c                        21 14.5    0.000    0.000    0.000    0.000
 topology_connectivity_pack_1.1       1  4.0    0.000    0.000    0.000    0.000
 topology_connectivity_pack_12        1  4.0    0.000    0.000    0.000    0.000
 dump_info_core_hamiltonian           1  5.0    0.000    0.000    0.000    0.000
 contract2add                         6  9.0    0.000    0.000    0.000    0.000
 dbcsr_get_global_row_map            47  8.2    0.000    0.000    0.000    0.000
 topology_coordinate_pack_1           1  4.0    0.000    0.000    0.000    0.000
 kpoint_initialize                    1  2.0    0.000    0.000    0.000    0.000
 topology_connectivity_pack_12_       1  4.0    0.000    0.000    0.000    0.000
 dbcsr_get_global_col_map            47  8.2    0.000    0.000    0.000    0.000
 topology_connectivity_pack_5         1  4.0    0.000    0.000    0.000    0.000
 dbcsr_mm_sched_finalize             47 13.2    0.000    0.000    0.000    0.000
 mp_sum_lm3                           1  2.0    0.000    0.000    0.000    0.000
 topology_connectivity_pack_11_       1  4.0    0.000    0.000    0.000    0.000
 metadyn_read                         1  2.0    0.000    0.000    0.000    0.000
 -------------------------------------------------------------------------------

 The number of warnings for this run is : 1
 
 -------------------------------------------------------------------------------
  **** **** ******  **  PROGRAM ENDED AT                 2020-04-15 23:30:38.098
 ***** ** ***  *** **   PROGRAM RAN ON                                   cn-0012
 **    ****   ******    PROGRAM RAN BY                                      lass
 ***** **    ** ** **   PROGRAM PROCESS ID                                221482
  **** **  *******  **  PROGRAM STOPPED IN /scratch/hpc-prf-ldft/lass/lass20_sc/
                                           eval/software/strong-scaling
