 DBCSR| CPU Multiplication driver                                           XSMM
 DBCSR| Multrec recursion limit                                              512
 DBCSR| Multiplication stack size                                           1000
 DBCSR| Maximum elements for images                                    UNLIMITED
 DBCSR| Multiplicative factor virtual images                                   1
 DBCSR| Use multiplication densification                                       T
 DBCSR| Multiplication size stacks                                             3
 DBCSR| Use memory pool for CPU allocation                                     F
 DBCSR| Number of 3D layers                                               SINGLE
 DBCSR| Use MPI memory allocation                                              F
 DBCSR| Use RMA algorithm                                                      F
 DBCSR| Use Communication thread                                               T
 DBCSR| Communication thread load                                             87


  **** **** ******  **  PROGRAM STARTED AT               2020-04-15 18:22:28.267
 ***** ** ***  *** **   PROGRAM STARTED ON                               cn-0019
 **    ****   ******    PROGRAM STARTED BY                                  lass
 ***** **    ** ** **   PROGRAM PROCESS ID                                428520
  **** **  *******  **  PROGRAM STARTED IN /scratch/hpc-prf-ldft/lass/lass20_sc/
                                           eval/software/varying-eps/2nd run

 CP2K| version string:                    CP2K version 8.0 (Development Version)
 CP2K| source code revision number:                                  git:28e460e
 CP2K| cp2kflags: omp libint fftw3 libxc elpa parallel mpi3 scalapack xsmm max_c
 CP2K|            ontr=4 mkl
 CP2K| is freely available from                            https://www.cp2k.org/
 CP2K| Program compiled at                         Sa 11. Apr 21:37:19 CEST 2020
 CP2K| Program compiled on                                               ln-0001
 CP2K| Program compiled for                                   Linux-x86-64-intel
 CP2K| Data directory path                  /scratch/hpc-prf-ldft/lass/cp2k/data
 CP2K| Input file name                                                 input.inp
 
 GLOBAL| Force Environment number                                              1
 GLOBAL| Basis set file name                                        BASIS_MOLOPT
 GLOBAL| Potential file name                                           POTENTIAL
 GLOBAL| MM Potential file name                                     MM_POTENTIAL
 GLOBAL| Coordinate file name                                      __STD_INPUT__
 GLOBAL| Method name                                                        CP2K
 GLOBAL| Project name                                                        H2O
 GLOBAL| Preferred FFT library                                             FFTW3
 GLOBAL| Preferred diagonalization lib.                                     ELPA
 GLOBAL| Run type                                                         ENERGY
 GLOBAL| All-to-all communication in single precision                          F
 GLOBAL| FFTs using library dependent lengths                                  T
 GLOBAL| Global print level                                               MEDIUM
 GLOBAL| MPI I/O enabled                                                       T
 GLOBAL| Total number of message passing processes                            80
 GLOBAL| Number of threads for this process                                    1
 GLOBAL| This output is from process                                           0
 GLOBAL| CPU model name                 Intel(R) Xeon(R) Gold 6148 CPU @ 2.40GHz
 GLOBAL| CPUID                                                              1003

 MEMORY| system memory details [Kb]
 MEMORY|                        rank 0           min           max       average
 MEMORY| MemTotal            196699340     196699340     196699340     196699340
 MEMORY| MemFree             142851156     142851156     181802952     162327054
 MEMORY| Buffers                     0             0             0             0
 MEMORY| Cached                9042880       7120532       9042880       8081706
 MEMORY| Slab                 32592088       1154980      32592088      16873534
 MEMORY| SReclaimable          3840500        244472       3840500       2042486
 MEMORY| MemLikelyFree       155734536     155734536     189167956     172451246


 *** Fundamental physical constants (SI units) ***

 *** Literature: B. J. Mohr and B. N. Taylor,
 ***             CODATA recommended values of the fundamental physical
 ***             constants: 2006, Web Version 5.1
 ***             http://physics.nist.gov/constants

 Speed of light in vacuum [m/s]                             2.99792458000000E+08
 Magnetic constant or permeability of vacuum [N/A**2]       1.25663706143592E-06
 Electric constant or permittivity of vacuum [F/m]          8.85418781762039E-12
 Planck constant (h) [J*s]                                  6.62606896000000E-34
 Planck constant (h-bar) [J*s]                              1.05457162825177E-34
 Elementary charge [C]                                      1.60217648700000E-19
 Electron mass [kg]                                         9.10938215000000E-31
 Electron g factor [ ]                                     -2.00231930436220E+00
 Proton mass [kg]                                           1.67262163700000E-27
 Fine-structure constant                                    7.29735253760000E-03
 Rydberg constant [1/m]                                     1.09737315685270E+07
 Avogadro constant [1/mol]                                  6.02214179000000E+23
 Boltzmann constant [J/K]                                   1.38065040000000E-23
 Atomic mass unit [kg]                                      1.66053878200000E-27
 Bohr radius [m]                                            5.29177208590000E-11

 *** Conversion factors ***

 [u] -> [a.u.]                                              1.82288848426455E+03
 [Angstrom] -> [Bohr] = [a.u.]                              1.88972613288564E+00
 [a.u.] = [Bohr] -> [Angstrom]                              5.29177208590000E-01
 [a.u.] -> [s]                                              2.41888432650478E-17
 [a.u.] -> [fs]                                             2.41888432650478E-02
 [a.u.] -> [J]                                              4.35974393937059E-18
 [a.u.] -> [N]                                              8.23872205491840E-08
 [a.u.] -> [K]                                              3.15774647902944E+05
 [a.u.] -> [kJ/mol]                                         2.62549961709828E+03
 [a.u.] -> [kcal/mol]                                       6.27509468713739E+02
 [a.u.] -> [Pa]                                             2.94210107994716E+13
 [a.u.] -> [bar]                                            2.94210107994716E+08
 [a.u.] -> [atm]                                            2.90362800883016E+08
 [a.u.] -> [eV]                                             2.72113838565563E+01
 [a.u.] -> [Hz]                                             6.57968392072181E+15
 [a.u.] -> [1/cm] (wave numbers)                            2.19474631370540E+05
 [a.u./Bohr**2] -> [1/cm]                                   5.14048714338585E+03
 

 CELL_TOP| Volume [angstrom^3]:                                       206601.159
 CELL_TOP| Vector a [angstrom    59.117     0.000     0.000    |a| =      59.117
 CELL_TOP| Vector b [angstrom     0.000    59.117     0.000    |b| =      59.117
 CELL_TOP| Vector c [angstrom     0.000     0.000    59.117    |c| =      59.117
 CELL_TOP| Angle (b,c), alpha [degree]:                                   90.000
 CELL_TOP| Angle (a,c), beta  [degree]:                                   90.000
 CELL_TOP| Angle (a,b), gamma [degree]:                                   90.000
 CELL_TOP| Numerically orthorhombic:                                         YES

 CELL_UC| Volume [angstrom^3]:                                           956.487
 CELL_UC| Vector a [angstrom]     9.853     0.000     0.000    |a| =       9.853
 CELL_UC| Vector b [angstrom]     0.000     9.853     0.000    |b| =       9.853
 CELL_UC| Vector c [angstrom]     0.000     0.000     9.853    |c| =       9.853
 CELL_UC| Angle (b,c), alpha [degree]:                                    90.000
 CELL_UC| Angle (a,c), beta  [degree]:                                    90.000
 CELL_UC| Angle (a,b), gamma [degree]:                                    90.000
 CELL_UC| Numerically orthorhombic:                                          YES
 
 GENERATE|  Preliminary Number of Bonds generated:                            64
 GENERATE|  Achieved consistency in connectivity generation.
 GENERATE|  Number of Bonds generated:                                        64
 GENERATE|  Preliminary Number of Bends generated:                            32
 GENERATE|  Number of Bends generated:                                        32
 GENERATE|  Number of UB generated:                                           32
 GENERATE|  Preliminary Number of Torsions generated:                          0

 CELL| Volume [angstrom^3]:                                           206601.159
 CELL| Vector a [angstrom]:      59.117     0.000     0.000    |a| =      59.117
 CELL| Vector b [angstrom]:       0.000    59.117     0.000    |b| =      59.117
 CELL| Vector c [angstrom]:       0.000     0.000    59.117    |c| =      59.117
 CELL| Angle (b,c), alpha [degree]:                                       90.000
 CELL| Angle (a,c), beta  [degree]:                                       90.000
 CELL| Angle (a,b), gamma [degree]:                                       90.000
 CELL| Numerically orthorhombic:                                             YES

 CELL_REF| Volume [angstrom^3]:                                       206601.159
 CELL_REF| Vector a [angstrom    59.117     0.000     0.000    |a| =      59.117
 CELL_REF| Vector b [angstrom     0.000    59.117     0.000    |b| =      59.117
 CELL_REF| Vector c [angstrom     0.000     0.000    59.117    |c| =      59.117
 CELL_REF| Angle (b,c), alpha [degree]:                                   90.000
 CELL_REF| Angle (a,c), beta  [degree]:                                   90.000
 CELL_REF| Angle (a,b), gamma [degree]:                                   90.000
 CELL_REF| Numerically orthorhombic:                                         YES

 *******************************************************************************
 *******************************************************************************
 **                                                                           **
 **     #####                         ##              ##                      **
 **    ##   ##            ##          ##              ##                      **
 **   ##     ##                       ##            ######                    **
 **   ##     ##  ##   ##  ##   #####  ##  ##   ####   ##    #####    #####    **
 **   ##     ##  ##   ##  ##  ##      ## ##   ##      ##   ##   ##  ##   ##   **
 **   ##  ## ##  ##   ##  ##  ##      ####     ###    ##   ######   ######    **
 **    ##  ###   ##   ##  ##  ##      ## ##      ##   ##   ##       ##        **
 **     #######   #####   ##   #####  ##  ##  ####    ##    #####   ##        **
 **           ##                                                    ##        **
 **                                                                           **
 **                                                ... make the atoms dance   **
 **                                                                           **
 **            Copyright (C) by CP2K developers group (2000 - 2020)           **
 **                                                                           **
 *******************************************************************************

 DFT| Spin restricted Kohn-Sham (RKS) calculation                            RKS
 DFT| Multiplicity                                                             1
 DFT| Number of spin states                                                    1
 DFT| Charge                                                                   0
 DFT| Self-interaction correction (SIC)                                       NO
 DFT| Cutoffs: density                                              1.000000E-10
 DFT|          gradient                                             1.000000E-10
 DFT|          tau                                                  1.000000E-10
 DFT|          cutoff_smoothing_range                               0.000000E+00
 DFT| XC density smoothing                                                  NONE
 DFT| XC derivatives                                                          PW
 FUNCTIONAL| ROUTINE=NEW
 FUNCTIONAL| PADE:
 FUNCTIONAL| S. Goedecker, M. Teter and J. Hutter, Phys. Rev. B 54, 1703 (1996) 

 QS| Method:                                                                 GPW
 QS| Density plane wave grid type                        NON-SPHERICAL FULLSPACE
 QS| Number of grid levels:                                                    4
 QS| Density cutoff [a.u.]:                                                150.0
 QS| Multi grid cutoff [a.u.]: 1) grid level                               150.0
 QS|                           2) grid level                                50.0
 QS|                           3) grid level                                16.7
 QS|                           4) grid level                                 5.6
 QS| Grid level progression factor:                                          3.0
 QS| Relative density cutoff [a.u.]:                                        20.0
 QS| Interaction thresholds: eps_pgf_orb:                                1.0E-05
 QS|                         eps_filter_matrix:                          0.0E+00
 QS|                         eps_core_charge:                            1.0E-12
 QS|                         eps_rho_gspace:                             1.0E-10
 QS|                         eps_rho_rspace:                             1.0E-10
 QS|                         eps_gvg_rspace:                             1.0E-05
 QS|                         eps_ppl:                                    1.0E-02
 QS|                         eps_ppnl:                                   1.0E-07


 ATOMIC KIND INFORMATION

  1. Atomic kind: O                                     Number of atoms:    6912

     Orbital Basis Set                                         SZV-MOLOPT-SR-GTH

       Number of orbital shell sets:                                           1
       Number of orbital shells:                                               2
       Number of primitive Cartesian functions:                                5
       Number of Cartesian basis functions:                                    4
       Number of spherical basis functions:                                    4
       Norm type:                                                              2

       Normalised Cartesian orbitals:

                        Set   Shell   Orbital            Exponent    Coefficient

                          1       1    2s               10.389228       0.396646
                                                         3.849621       0.208811
                                                         1.388401      -0.301641
                                                         0.496955      -0.274061
                                                         0.162492      -0.033677

                          1       2    3px              10.389228      -1.530415
                                                         3.849621      -1.371928
                                                         1.388401      -0.761951
                                                         0.496955      -0.253695
                                                         0.162492      -0.035541
                          1       2    3py              10.389228      -1.530415
                                                         3.849621      -1.371928
                                                         1.388401      -0.761951
                                                         0.496955      -0.253695
                                                         0.162492      -0.035541
                          1       2    3pz              10.389228      -1.530415
                                                         3.849621      -1.371928
                                                         1.388401      -0.761951
                                                         0.496955      -0.253695
                                                         0.162492      -0.035541

     GTH Potential information for                                   GTH-PADE-q6

       Description:                       Goedecker-Teter-Hutter pseudopotential
                                           Goedecker et al., PRB 54, 1703 (1996)
                                          Hartwigsen et al., PRB 58, 3641 (1998)
                                                      Krack, TCA 114, 145 (2005)

       Gaussian exponent of the core charge distribution:               8.154466
       Electronic configuration (s p d ...):                               2   4

       Parameters of the local part of the GTH pseudopotential:

                          rloc        C1          C2          C3          C4
                        0.247621  -16.580318    2.395701

       Parameters of the non-local part of the GTH pseudopotential:

                   l      r(l)      h(i,j,l)

                   0    0.221786   18.266917
                   1    0.256829

  2. Atomic kind: H                                     Number of atoms:   13824

     Orbital Basis Set                                         SZV-MOLOPT-SR-GTH

       Number of orbital shell sets:                                           1
       Number of orbital shells:                                               1
       Number of primitive Cartesian functions:                                5
       Number of Cartesian basis functions:                                    1
       Number of spherical basis functions:                                    1
       Norm type:                                                              2

       Normalised Cartesian orbitals:

                        Set   Shell   Orbital            Exponent    Coefficient

                          1       1    2s               10.068468      -0.133023
                                                         2.680223      -0.177618
                                                         0.791502      -0.258419
                                                         0.239116      -0.107525
                                                         0.082193      -0.014019

     GTH Potential information for                                   GTH-PADE-q1

       Description:                       Goedecker-Teter-Hutter pseudopotential
                                           Goedecker et al., PRB 54, 1703 (1996)
                                          Hartwigsen et al., PRB 58, 3641 (1998)
                                                      Krack, TCA 114, 145 (2005)

       Gaussian exponent of the core charge distribution:              12.500000
       Electronic configuration (s p d ...):                                   1

       Parameters of the local part of the GTH pseudopotential:

                          rloc        C1          C2          C3          C4
                        0.200000   -4.180237    0.725075


 TOTAL NUMBERS AND MAXIMUM NUMBERS

  Total number of            - Atomic kinds:                                   2
                             - Atoms:                                      20736
                             - Shell sets:                                 20736
                             - Shells:                                     27648
                             - Primitive Cartesian functions:             103680
                             - Cartesian basis functions:                  41472
                             - Spherical basis functions:                  41472

  Maximum angular momentum of- Orbital basis functions:                        1
                             - Local part of the GTH pseudopotential:          2
                             - Non-local part of the GTH pseudopotential:      0

 PW_GRID| Information for grid number                                          1
 PW_GRID| Grid distributed over                                    80 processors
 PW_GRID| Real space group dimensions                                    80    1
 PW_GRID| the grid is blocked:                                                NO
 PW_GRID| Cutoff [a.u.]                                                    150.0
 PW_GRID| spherical cutoff:                                                   NO
 PW_GRID|   Bounds   1           -308     307                Points:         616
 PW_GRID|   Bounds   2           -308     307                Points:         616
 PW_GRID|   Bounds   3           -308     307                Points:         616
 PW_GRID| Volume element (a.u.^3)  0.5965E-02     Volume (a.u.^3)   1394213.7440
 PW_GRID| Grid span                                                    FULLSPACE
 PW_GRID|   Distribution                         Average         Max         Min
 PW_GRID|   G-Vectors                          2921811.2     2922304     2921688
 PW_GRID|   G-Rays                                4743.2        4744        4743
 PW_GRID|   Real Space Points                  2921811.2     3035648     2656192

 PW_GRID| Information for grid number                                          2
 PW_GRID| Number of the reference grid                                         1
 PW_GRID| Grid distributed over                                    80 processors
 PW_GRID| Real space group dimensions                                    80    1
 PW_GRID| the grid is blocked:                                                NO
 PW_GRID| Cutoff [a.u.]                                                     50.0
 PW_GRID| spherical cutoff:                                                   NO
 PW_GRID|   Bounds   1           -180     179                Points:         360
 PW_GRID|   Bounds   2           -180     179                Points:         360
 PW_GRID|   Bounds   3           -180     179                Points:         360
 PW_GRID| Volume element (a.u.^3)  0.2988E-01     Volume (a.u.^3)   1394213.7440
 PW_GRID| Grid span                                                    FULLSPACE
 PW_GRID|   Distribution                         Average         Max         Min
 PW_GRID|   G-Vectors                           583200.0      583920      582840
 PW_GRID|   G-Rays                                1620.0        1622        1619
 PW_GRID|   Real Space Points                   583200.0      648000      518400

 PW_GRID| Information for grid number                                          3
 PW_GRID| Number of the reference grid                                         1
 PW_GRID| Grid distributed over                                    80 processors
 PW_GRID| Real space group dimensions                                    80    1
 PW_GRID| the grid is blocked:                                                NO
 PW_GRID| Cutoff [a.u.]                                                     16.7
 PW_GRID| spherical cutoff:                                                   NO
 PW_GRID|   Bounds   1           -105     104                Points:         210
 PW_GRID|   Bounds   2           -105     104                Points:         210
 PW_GRID|   Bounds   3           -105     104                Points:         210
 PW_GRID| Volume element (a.u.^3)  0.1505         Volume (a.u.^3)   1394213.7440
 PW_GRID| Grid span                                                    FULLSPACE
 PW_GRID|   Distribution                         Average         Max         Min
 PW_GRID|   G-Vectors                           115762.5      116130      115500
 PW_GRID|   G-Rays                                 551.2         553         550
 PW_GRID|   Real Space Points                   115762.5      132300       88200

 PW_GRID| Information for grid number                                          4
 PW_GRID| Number of the reference grid                                         1
 PW_GRID| Grid distributed over                                    80 processors
 PW_GRID| Real space group dimensions                                    80    1
 PW_GRID| the grid is blocked:                                                NO
 PW_GRID| Cutoff [a.u.]                                                      5.6
 PW_GRID| spherical cutoff:                                                   NO
 PW_GRID|   Bounds   1            -60      59                Points:         120
 PW_GRID|   Bounds   2            -60      59                Points:         120
 PW_GRID|   Bounds   3            -60      59                Points:         120
 PW_GRID| Volume element (a.u.^3)  0.8068         Volume (a.u.^3)   1394213.7440
 PW_GRID| Grid span                                                    FULLSPACE
 PW_GRID|   Distribution                         Average         Max         Min
 PW_GRID|   G-Vectors                            21600.0       21840       21480
 PW_GRID|   G-Rays                                 180.0         182         179
 PW_GRID|   Real Space Points                    21600.0       28800       14400

 POISSON| Solver                                                        PERIODIC
 POISSON| Periodicity                                                        XYZ

 RS_GRID| Information for grid number                                          1
 RS_GRID|   Bounds   1           -308     307                Points:         616
 RS_GRID|   Bounds   2           -308     307                Points:         616
 RS_GRID|   Bounds   3           -308     307                Points:         616
 RS_GRID| Real space distribution over                                  4 groups
 RS_GRID| Real space distribution along direction                              1
 RS_GRID| Border size                                                         19
 RS_GRID| Real space distribution over                                  4 groups
 RS_GRID| Real space distribution along direction                              2
 RS_GRID| Border size                                                         19
 RS_GRID| Real space distribution over                                  5 groups
 RS_GRID| Real space distribution along direction                              3
 RS_GRID| Border size                                                         19
 RS_GRID|   Distribution                         Average         Max         Min
 RS_GRID|   Planes                                 192.0         192         192
 RS_GRID|   Distribution                         Average         Max         Min
 RS_GRID|   Planes                                 192.0         192         192
 RS_GRID|   Distribution                         Average         Max         Min
 RS_GRID|   Planes                                 161.2         162         161

 RS_GRID| Information for grid number                                          2
 RS_GRID|   Bounds   1           -180     179                Points:         360
 RS_GRID|   Bounds   2           -180     179                Points:         360
 RS_GRID|   Bounds   3           -180     179                Points:         360
 RS_GRID| Real space distribution over                                  4 groups
 RS_GRID| Real space distribution along direction                              1
 RS_GRID| Border size                                                         19
 RS_GRID| Real space distribution over                                  4 groups
 RS_GRID| Real space distribution along direction                              2
 RS_GRID| Border size                                                         19
 RS_GRID| Real space distribution over                                  5 groups
 RS_GRID| Real space distribution along direction                              3
 RS_GRID| Border size                                                         19
 RS_GRID|   Distribution                         Average         Max         Min
 RS_GRID|   Planes                                 128.0         128         128
 RS_GRID|   Distribution                         Average         Max         Min
 RS_GRID|   Planes                                 128.0         128         128
 RS_GRID|   Distribution                         Average         Max         Min
 RS_GRID|   Planes                                 110.0         110         110

 RS_GRID| Information for grid number                                          3
 RS_GRID|   Bounds   1           -105     104                Points:         210
 RS_GRID|   Bounds   2           -105     104                Points:         210
 RS_GRID|   Bounds   3           -105     104                Points:         210
 RS_GRID| Real space distribution over                                  4 groups
 RS_GRID| Real space distribution along direction                              1
 RS_GRID| Border size                                                         20
 RS_GRID| Real space distribution over                                  4 groups
 RS_GRID| Real space distribution along direction                              2
 RS_GRID| Border size                                                         20
 RS_GRID| Real space distribution over                                  5 groups
 RS_GRID| Real space distribution along direction                              3
 RS_GRID| Border size                                                         20
 RS_GRID|   Distribution                         Average         Max         Min
 RS_GRID|   Planes                                  92.5          93          92
 RS_GRID|   Distribution                         Average         Max         Min
 RS_GRID|   Planes                                  92.5          93          92
 RS_GRID|   Distribution                         Average         Max         Min
 RS_GRID|   Planes                                  82.0          82          82

 RS_GRID| Information for grid number                                          4
 RS_GRID|   Bounds   1            -60      59                Points:         120
 RS_GRID|   Bounds   2            -60      59                Points:         120
 RS_GRID|   Bounds   3            -60      59                Points:         120
 RS_GRID| Real space distribution over                                  4 groups
 RS_GRID| Real space distribution along direction                              1
 RS_GRID| Border size                                                         20
 RS_GRID| Real space distribution over                                  4 groups
 RS_GRID| Real space distribution along direction                              2
 RS_GRID| Border size                                                         20
 RS_GRID| Real space distribution over                                  5 groups
 RS_GRID| Real space distribution along direction                              3
 RS_GRID| Border size                                                         20
 RS_GRID|   Distribution                         Average         Max         Min
 RS_GRID|   Planes                                  70.0          70          70
 RS_GRID|   Distribution                         Average         Max         Min
 RS_GRID|   Planes                                  70.0          70          70
 RS_GRID|   Distribution                         Average         Max         Min
 RS_GRID|   Planes                                  64.0          64          64

 ------------------------------ Linear scaling SCF -----------------------------
 eps_scf:                                                              0.562E-02
 eps_filter:                                                           0.562E-02
 mixing_fraction:                                                      0.450E+00
 max_scf:                                                                      1
 fixed chemical potential (mu)                                                 F
 has unit metric:                                                              F
 Computing inv(S):                                                             T
 Computing sqrt(S):                                                            T
 Computing S preconditioner                                                    T
 S sqrt method:                                                     NEWTONSCHULZ
 S sqrt order:                                                                 3
 Extrapolation order:                                                          4
 Use single precision matrices                                                 F
 S preconditioner type                                                 MOLECULAR
 Polarized Atomic Orbitals (PAO)                                               F
 Purification method                                              sign iteration
 Sign method:                                                   submatrix method
 Submatrix sign method:                                                   direct
 Sign order:                                                                   2
 Symmetric sign calculation:                                                   T
 Cluster type                                                          MOLECULAR
 Computing Chebyshev                                                       FALSE
 Using PAO                                                                     F
 -------------------------------------------------------------------------------

 
     Lanczos converged:  T threshold:   0.100E-02
     Est. extremal eigenvalues:    0.192E+01   0.330E+00
     Est. condition number :    0.582E+01
 
 Order=           3
     NS sqrt iter    1 0.00014468   0.511E+00       0.025        5.965
     NS sqrt iter    2 0.00014468   0.198E+00       0.022        6.765
     NS sqrt iter    3 0.00014468   0.121E-01       0.020        7.401
     NS sqrt iter    4 0.00014468   0.378E-05       0.019        5.818
     Symmetrizing Results
     Final NS sqrt iter    4 0.00014468   0.235E-10

 
     Lanczos converged:  T threshold:   0.100E-02
     Est. extremal eigenvalues:    0.162E+01   0.621E+00
     Est. condition number :    0.261E+01
 
 Order=           3
     NS sqrt iter    1 0.00171351   0.253E+00       0.103      164.624
     NS sqrt iter    2 0.00168186   0.194E-01       0.058      102.344
     Symmetrizing Results
     Final NS sqrt iter    2 0.00168186   0.109E-02



 Guess for atomic kind: O

 Electronic structure
    Total number of core electrons                                          2.00
    Total number of valence electrons                                       6.00
    Total number of electrons                                               8.00
    Multiplicity                                                   not specified
    S   [  2.00] 2.00
    P      4.00
 

 *******************************************************************************
                  Iteration          Convergence                     Energy [au]
 *******************************************************************************
                          1         0.00000                     -15.707921728522

 Energy components [Hartree]           Total Energy ::          -15.707921728522
                                        Band Energy ::           -2.136736949465
                                     Kinetic Energy ::           11.912575941791
                                   Potential Energy ::          -27.620497670312
                                      Virial (-V/T) ::            2.318599923751
                                        Core Energy ::          -26.283592465485
                                          XC Energy ::           -3.178950412391
                                     Coulomb Energy ::           13.754621149354
                       Total Pseudopotential Energy ::          -38.230330262842
                       Local Pseudopotential Energy ::          -39.524789846979
                    Nonlocal Pseudopotential Energy ::            1.294459584137
                                        Confinement ::            0.341618555667

 Orbital energies  State     L     Occupation   Energy[a.u.]          Energy[eV]

                       1     0          2.000      -0.709155          -19.297083
 
                       1     1          4.000      -0.179607           -4.887351
 

 Total Electron Density at R=0:                                         0.000031

 Guess for atomic kind: H

 Electronic structure
    Total number of core electrons                                          0.00
    Total number of valence electrons                                       1.00
    Total number of electrons                                               1.00
    Multiplicity                                                   not specified
    S      1.00
 

 *******************************************************************************
                  Iteration          Convergence                     Energy [au]
 *******************************************************************************
                          1         0.00000                      -0.372474116344

 Energy components [Hartree]           Total Energy ::           -0.372474116344
                                        Band Energy ::           -0.184689713228
                                     Kinetic Energy ::            0.795946116619
                                   Potential Energy ::           -1.168420232963
                                      Virial (-V/T) ::            1.467963984706
                                        Core Energy ::           -0.452545141516
                                          XC Energy ::           -0.314416247311
                                     Coulomb Energy ::            0.394487272483
                       Total Pseudopotential Energy ::           -1.259976600556
                       Local Pseudopotential Energy ::           -1.259976600556
                    Nonlocal Pseudopotential Energy ::            0.000000000000
                                        Confinement ::            0.114853424211

 Orbital energies  State     L     Occupation   Energy[a.u.]          Energy[eV]

                       1     0          1.000      -0.184690           -5.025663
 

 Total Electron Density at R=0:                                         0.476934
 Re-scaling the density matrix to get the right number of electrons
                  # Electrons              Trace(P)               Scaling factor
                        55296             55296.000                        1.000
 Energy with the initial guess:   -117107.875093026

 Combining            1  size           78  flops    6560206848.00000     
 Combining            2  size          132  flops    15897378816.0000     
 Combining            3  size          186  flops    29651816448.0000     
 Combining            4  size          204  flops    29340278784.0000     
 Combining            5  size          210  flops    25604812800.0000     
 Combining            6  size          270  flops    45349632000.0000     
 Combining            7  size          318  flops    63506334281.1429     
 Combining            8  size          348  flops    72825163776.0000     
 Combining            9  size          348  flops    64733478912.0000     
 Combining           10  size          390  flops    82002585600.0000     
 Combining           11  size          426  flops    97156047220.3636     
 Combining           12  size          444  flops    100832698368.000     
 Combining           13  size          480  flops    117601831384.615     
 Combining           14  size          498  flops    121953345243.429     
 Combining           15  size          498  flops    113823122227.200     
 Combining           16  size          522  flops    122892463872.000     
 Combining           17  size          570  flops    150594590117.647     
 Combining           18  size          588  flops    156132458496.000     
 Combining           19  size          618  flops    171729754650.947     
 Combining           20  size          624  flops    167941295308.800     
 Combining           21  size          630  flops    164602368000.000     
 Combining           22  size          630  flops    157120442181.818     
 Combining           23  size          642  flops    159041686839.652     
 Combining           24  size          642  flops    152414949888.000     
 Combining           25  size          648  flops    150459195064.320     
 Combining           26  size          648  flops    144672302946.462     
 Combining           27  size          660  flops    147197952000.000     
 Combining           28  size          660  flops    141940882285.714     
 Combining           29  size          690  flops    156596841931.034     
 Combining           30  size          690  flops    151376947200.000     
 Combining           31  size          696  flops    150348725214.968     
 Combining           32  size          708  flops    153314601984.000     
 Combining           33  size          726  flops    160298569728.000     
 Combining           34  size          732  flops    159473325718.588     
 Combining           35  size          762  flops    174755396110.629     
 Combining           36  size          774  flops    178054972416.000     
 Combining           37  size          774  flops    173242675864.216     
 Combining           38  size          834  flops    211031983265.684     
 Combining           39  size          882  flops    243206329580.308     
 Combining           40  size          912  flops    262155062476.800     
 Combining           41  size          912  flops    255761036562.732     
 Combining           42  size          954  flops    285778504265.143     
 Combining           43  size          990  flops    311939845953.488     
 Combining           44  size         1008  flops    321782665588.364     
 Combining           45  size         1044  flops    349560786124.800     
 Combining           46  size         1062  flops    359956022049.391     
 Combining           47  size         1062  flops    352297383282.383     
 Combining           48  size         1086  flops    368877328128.000     
 Combining           49  size         1116  flops    392130144047.020     
 Combining           50  size         1134  flops    403183624273.920     
 Combining           51  size         1152  flops    414401182780.235     
 Combining           52  size         1152  flops    406431929265.231     
 Combining           53  size         1158  flops    405026588246.943     
 Combining           54  size         1158  flops    397526095872.000     
 Combining           55  size         1170  flops    402558147490.909     
 Combining           56  size         1170  flops    395369609142.857     
 Combining           57  size         1176  flops    394439895147.789     
 Combining           58  size         1176  flops    387639207300.414     
 Combining           59  size         1188  flops    392853869724.203     
 Combining           60  size         1188  flops    386306305228.800     
 Combining           61  size         1218  flops    409492314347.016     
 Combining           62  size         1218  flops    402887599599.484     
 Combining           63  size         1218  flops    396492558336.000     
 Combining           64  size         1230  flops    401947272000.000     
 Combining           65  size         1248  flops    413393957683.200     
 Combining           66  size         1254  flops    413030762496.000     
 Combining           67  size         1284  flops    436771199679.045     
 Combining           68  size         1296  flops    442527044306.824     
 Combining           69  size         1296  flops    436113608882.087     
 Combining           70  size         1356  flops    492396269216.914     
 Combining           71  size         1404  flops    538860934331.493     
 Combining           72  size         1434  flops    566172384768.000     
 Combining           73  size         1434  flops    558416598675.288     
 Combining           74  size         1476  flops    600704766284.108     
 Combining           75  size         1512  flops    637129677864.960     
 Combining           76  size         1530  flops    651470005894.737     
 Combining           77  size         1566  flops    689474602502.649     
 Combining           78  size         1584  flops    704376169078.154     
 Combining           79  size         1584  flops    695460015039.190     
 Combining           80  size         1608  flops    718458804633.600     
 Combining           81  size         1638  flops    750050316288.000     
 Combining           82  size         1656  flops    765598140765.659     
 Combining           83  size         1674  flops    781307500864.771     
 Combining           84  size         1674  flops    772006221092.571     
 Combining           85  size         1680  flops    771156714917.647     
 Combining           86  size         1680  flops    762189776372.093     
 Using            1  block columns to construct a submatrix
 Threads(OMP/MKL):            1 /           1
 Rank           0 processing submatrix           1 size          78
 Rank           0 processing submatrix           2 size          60
 Rank           0 processing submatrix           3 size          90
 Rank           0 processing submatrix           4 size          66
 Rank           0 processing submatrix           5 size          84
 Rank           0 processing submatrix           6 size          66
 Rank           0 processing submatrix           7 size          66
 Rank           0 processing submatrix           8 size          72
 Rank           0 processing submatrix           9 size          66
 Rank           0 processing submatrix          10 size          78
 Rank           0 processing submatrix          11 size          66
 Rank           0 processing submatrix          12 size          48
 Rank           0 processing submatrix          13 size          72
 Rank           0 processing submatrix          14 size          72
 Rank           0 processing submatrix          15 size          66
 Rank           0 processing submatrix          16 size          78
 Rank           0 processing submatrix          17 size          90
 Rank           0 processing submatrix          18 size          66
 Rank           0 processing submatrix          19 size          78
 Rank           0 processing submatrix          20 size          84
 Rank           0 processing submatrix          21 size          72
 Rank           0 processing submatrix          22 size          66
 Rank           0 processing submatrix          23 size          72
 Rank           0 processing submatrix          24 size          90
 Rank           0 processing submatrix          25 size          60
 Rank           0 processing submatrix          26 size          42
 Rank           0 processing submatrix          27 size          72
 Rank           0 processing submatrix          28 size          78
 Rank           0 processing submatrix          29 size          90
 Rank           0 processing submatrix          30 size          72
 Rank           0 processing submatrix          31 size          72
 Rank           0 processing submatrix          32 size          78
 Rank           0 processing submatrix          33 size          78
 Rank           0 processing submatrix          34 size          60
 Rank           0 processing submatrix          35 size          90
 Rank           0 processing submatrix          36 size          66
 Rank           0 processing submatrix          37 size          84
 Rank           0 processing submatrix          38 size          66
 Rank           0 processing submatrix          39 size          66
 Rank           0 processing submatrix          40 size          72
 Rank           0 processing submatrix          41 size          66
 Rank           0 processing submatrix          42 size          78
 Rank           0 processing submatrix          43 size          66
 Rank           0 processing submatrix          44 size          48
 Rank           0 processing submatrix          45 size          72
 Rank           0 processing submatrix          46 size          72
 Rank           0 processing submatrix          47 size          66
 Rank           0 processing submatrix          48 size          78
 Rank           0 processing submatrix          49 size          90
 Rank           0 processing submatrix          50 size          66
 Rank           0 processing submatrix          51 size          78
 Rank           0 processing submatrix          52 size          84
 Rank           0 processing submatrix          53 size          72
 Rank           0 processing submatrix          54 size          66
 Rank           0 processing submatrix          55 size          72
 Rank           0 processing submatrix          56 size          90
 Rank           0 processing submatrix          57 size          60
 Rank           0 processing submatrix          58 size          42
 Rank           0 processing submatrix          59 size          72
 Rank           0 processing submatrix          60 size          78
 Rank           0 processing submatrix          61 size          90
 Rank           0 processing submatrix          62 size          72
 Rank           0 processing submatrix          63 size          72
 Rank           0 processing submatrix          64 size          78
 Rank           0 processing submatrix          65 size          78
 Rank           0 processing submatrix          66 size          60
 Rank           0 processing submatrix          67 size          90
 Rank           0 processing submatrix          68 size          66
 Rank           0 processing submatrix          69 size          84
 Rank           0 processing submatrix          70 size          66
 Rank           0 processing submatrix          71 size          66
 Rank           0 processing submatrix          72 size          72
 Rank           0 processing submatrix          73 size          66
 Rank           0 processing submatrix          74 size          78
 Rank           0 processing submatrix          75 size          66
 Rank           0 processing submatrix          76 size          48
 Rank           0 processing submatrix          77 size          72
 Rank           0 processing submatrix          78 size          72
 Rank           0 processing submatrix          79 size          66
 Rank           0 processing submatrix          80 size          78
 Rank           0 processing submatrix          81 size          90
 Rank           0 processing submatrix          82 size          66
 Rank           0 processing submatrix          83 size          78
 Rank           0 processing submatrix          84 size          84
 Rank           0 processing submatrix          85 size          72
 Rank           0 processing submatrix          86 size          66
 Rank           0 processing submatrix          87 size          72
 matrix_sign_submatrix took   0.668060064315796     
 Deviation from idempotency:       0.298391295690
 Energy Tr(DK)  -12162.321128547414
 Density matrix:  iter, mu, trace error:  1   0.070000000     0.839798695
 Combining            1  size           78  flops    6560206848.00000     
 Combining            2  size          132  flops    15897378816.0000     
 Combining            3  size          186  flops    29651816448.0000     
 Combining            4  size          204  flops    29340278784.0000     
 Combining            5  size          210  flops    25604812800.0000     
 Combining            6  size          270  flops    45349632000.0000     
 Combining            7  size          318  flops    63506334281.1429     
 Combining            8  size          348  flops    72825163776.0000     
 Combining            9  size          348  flops    64733478912.0000     
 Combining           10  size          390  flops    82002585600.0000     
 Combining           11  size          426  flops    97156047220.3636     
 Combining           12  size          444  flops    100832698368.000     
 Combining           13  size          480  flops    117601831384.615     
 Combining           14  size          498  flops    121953345243.429     
 Combining           15  size          498  flops    113823122227.200     
 Combining           16  size          522  flops    122892463872.000     
 Combining           17  size          570  flops    150594590117.647     
 Combining           18  size          588  flops    156132458496.000     
 Combining           19  size          618  flops    171729754650.947     
 Combining           20  size          624  flops    167941295308.800     
 Combining           21  size          630  flops    164602368000.000     
 Combining           22  size          630  flops    157120442181.818     
 Combining           23  size          642  flops    159041686839.652     
 Combining           24  size          642  flops    152414949888.000     
 Combining           25  size          648  flops    150459195064.320     
 Combining           26  size          648  flops    144672302946.462     
 Combining           27  size          660  flops    147197952000.000     
 Combining           28  size          660  flops    141940882285.714     
 Combining           29  size          690  flops    156596841931.034     
 Combining           30  size          690  flops    151376947200.000     
 Combining           31  size          696  flops    150348725214.968     
 Combining           32  size          708  flops    153314601984.000     
 Combining           33  size          726  flops    160298569728.000     
 Combining           34  size          732  flops    159473325718.588     
 Combining           35  size          762  flops    174755396110.629     
 Combining           36  size          774  flops    178054972416.000     
 Combining           37  size          774  flops    173242675864.216     
 Combining           38  size          834  flops    211031983265.684     
 Combining           39  size          882  flops    243206329580.308     
 Combining           40  size          912  flops    262155062476.800     
 Combining           41  size          912  flops    255761036562.732     
 Combining           42  size          954  flops    285778504265.143     
 Combining           43  size          990  flops    311939845953.488     
 Combining           44  size         1008  flops    321782665588.364     
 Combining           45  size         1044  flops    349560786124.800     
 Combining           46  size         1062  flops    359956022049.391     
 Combining           47  size         1062  flops    352297383282.383     
 Combining           48  size         1086  flops    368877328128.000     
 Combining           49  size         1116  flops    392130144047.020     
 Combining           50  size         1134  flops    403183624273.920     
 Combining           51  size         1152  flops    414401182780.235     
 Combining           52  size         1152  flops    406431929265.231     
 Combining           53  size         1158  flops    405026588246.943     
 Combining           54  size         1158  flops    397526095872.000     
 Combining           55  size         1170  flops    402558147490.909     
 Combining           56  size         1170  flops    395369609142.857     
 Combining           57  size         1176  flops    394439895147.789     
 Combining           58  size         1176  flops    387639207300.414     
 Combining           59  size         1188  flops    392853869724.203     
 Combining           60  size         1188  flops    386306305228.800     
 Combining           61  size         1218  flops    409492314347.016     
 Combining           62  size         1218  flops    402887599599.484     
 Combining           63  size         1218  flops    396492558336.000     
 Combining           64  size         1230  flops    401947272000.000     
 Combining           65  size         1248  flops    413393957683.200     
 Combining           66  size         1254  flops    413030762496.000     
 Combining           67  size         1284  flops    436771199679.045     
 Combining           68  size         1296  flops    442527044306.824     
 Combining           69  size         1296  flops    436113608882.087     
 Combining           70  size         1356  flops    492396269216.914     
 Combining           71  size         1404  flops    538860934331.493     
 Combining           72  size         1434  flops    566172384768.000     
 Combining           73  size         1434  flops    558416598675.288     
 Combining           74  size         1476  flops    600704766284.108     
 Combining           75  size         1512  flops    637129677864.960     
 Combining           76  size         1530  flops    651470005894.737     
 Combining           77  size         1566  flops    689474602502.649     
 Combining           78  size         1584  flops    704376169078.154     
 Combining           79  size         1584  flops    695460015039.190     
 Combining           80  size         1608  flops    718458804633.600     
 Combining           81  size         1638  flops    750050316288.000     
 Combining           82  size         1656  flops    765598140765.659     
 Combining           83  size         1674  flops    781307500864.771     
 Combining           84  size         1674  flops    772006221092.571     
 Combining           85  size         1680  flops    771156714917.647     
 Combining           86  size         1680  flops    762189776372.093     
 Using            1  block columns to construct a submatrix
 Threads(OMP/MKL):            1 /           1
 Rank           0 processing submatrix           1 size          78
 Rank           0 processing submatrix           2 size          60
 Rank           0 processing submatrix           3 size          90
 Rank           0 processing submatrix           4 size          66
 Rank           0 processing submatrix           5 size          84
 Rank           0 processing submatrix           6 size          66
 Rank           0 processing submatrix           7 size          66
 Rank           0 processing submatrix           8 size          72
 Rank           0 processing submatrix           9 size          66
 Rank           0 processing submatrix          10 size          78
 Rank           0 processing submatrix          11 size          66
 Rank           0 processing submatrix          12 size          48
 Rank           0 processing submatrix          13 size          72
 Rank           0 processing submatrix          14 size          72
 Rank           0 processing submatrix          15 size          66
 Rank           0 processing submatrix          16 size          78
 Rank           0 processing submatrix          17 size          90
 Rank           0 processing submatrix          18 size          66
 Rank           0 processing submatrix          19 size          78
 Rank           0 processing submatrix          20 size          84
 Rank           0 processing submatrix          21 size          72
 Rank           0 processing submatrix          22 size          66
 Rank           0 processing submatrix          23 size          72
 Rank           0 processing submatrix          24 size          90
 Rank           0 processing submatrix          25 size          60
 Rank           0 processing submatrix          26 size          42
 Rank           0 processing submatrix          27 size          72
 Rank           0 processing submatrix          28 size          78
 Rank           0 processing submatrix          29 size          90
 Rank           0 processing submatrix          30 size          72
 Rank           0 processing submatrix          31 size          72
 Rank           0 processing submatrix          32 size          78
 Rank           0 processing submatrix          33 size          78
 Rank           0 processing submatrix          34 size          60
 Rank           0 processing submatrix          35 size          90
 Rank           0 processing submatrix          36 size          66
 Rank           0 processing submatrix          37 size          84
 Rank           0 processing submatrix          38 size          66
 Rank           0 processing submatrix          39 size          66
 Rank           0 processing submatrix          40 size          72
 Rank           0 processing submatrix          41 size          66
 Rank           0 processing submatrix          42 size          78
 Rank           0 processing submatrix          43 size          66
 Rank           0 processing submatrix          44 size          48
 Rank           0 processing submatrix          45 size          72
 Rank           0 processing submatrix          46 size          72
 Rank           0 processing submatrix          47 size          66
 Rank           0 processing submatrix          48 size          78
 Rank           0 processing submatrix          49 size          90
 Rank           0 processing submatrix          50 size          66
 Rank           0 processing submatrix          51 size          78
 Rank           0 processing submatrix          52 size          84
 Rank           0 processing submatrix          53 size          72
 Rank           0 processing submatrix          54 size          66
 Rank           0 processing submatrix          55 size          72
 Rank           0 processing submatrix          56 size          90
 Rank           0 processing submatrix          57 size          60
 Rank           0 processing submatrix          58 size          42
 Rank           0 processing submatrix          59 size          72
 Rank           0 processing submatrix          60 size          78
 Rank           0 processing submatrix          61 size          90
 Rank           0 processing submatrix          62 size          72
 Rank           0 processing submatrix          63 size          72
 Rank           0 processing submatrix          64 size          78
 Rank           0 processing submatrix          65 size          78
 Rank           0 processing submatrix          66 size          60
 Rank           0 processing submatrix          67 size          90
 Rank           0 processing submatrix          68 size          66
 Rank           0 processing submatrix          69 size          84
 Rank           0 processing submatrix          70 size          66
 Rank           0 processing submatrix          71 size          66
 Rank           0 processing submatrix          72 size          72
 Rank           0 processing submatrix          73 size          66
 Rank           0 processing submatrix          74 size          78
 Rank           0 processing submatrix          75 size          66
 Rank           0 processing submatrix          76 size          48
 Rank           0 processing submatrix          77 size          72
 Rank           0 processing submatrix          78 size          72
 Rank           0 processing submatrix          79 size          66
 Rank           0 processing submatrix          80 size          78
 Rank           0 processing submatrix          81 size          90
 Rank           0 processing submatrix          82 size          66
 Rank           0 processing submatrix          83 size          78
 Rank           0 processing submatrix          84 size          84
 Rank           0 processing submatrix          85 size          72
 Rank           0 processing submatrix          86 size          66
 Rank           0 processing submatrix          87 size          72
 matrix_sign_submatrix took   0.166446924209595     
 Deviation from idempotency:       0.298391295690
 Energy Tr(DK)  -12162.321128547414
 Density matrix:  iter, mu, trace error:  2   0.060000000     0.839798695
 Combining            1  size           78  flops    6560206848.00000     
 Combining            2  size          132  flops    15897378816.0000     
 Combining            3  size          186  flops    29651816448.0000     
 Combining            4  size          204  flops    29340278784.0000     
 Combining            5  size          210  flops    25604812800.0000     
 Combining            6  size          270  flops    45349632000.0000     
 Combining            7  size          318  flops    63506334281.1429     
 Combining            8  size          348  flops    72825163776.0000     
 Combining            9  size          348  flops    64733478912.0000     
 Combining           10  size          390  flops    82002585600.0000     
 Combining           11  size          426  flops    97156047220.3636     
 Combining           12  size          444  flops    100832698368.000     
 Combining           13  size          480  flops    117601831384.615     
 Combining           14  size          498  flops    121953345243.429     
 Combining           15  size          498  flops    113823122227.200     
 Combining           16  size          522  flops    122892463872.000     
 Combining           17  size          570  flops    150594590117.647     
 Combining           18  size          588  flops    156132458496.000     
 Combining           19  size          618  flops    171729754650.947     
 Combining           20  size          624  flops    167941295308.800     
 Combining           21  size          630  flops    164602368000.000     
 Combining           22  size          630  flops    157120442181.818     
 Combining           23  size          642  flops    159041686839.652     
 Combining           24  size          642  flops    152414949888.000     
 Combining           25  size          648  flops    150459195064.320     
 Combining           26  size          648  flops    144672302946.462     
 Combining           27  size          660  flops    147197952000.000     
 Combining           28  size          660  flops    141940882285.714     
 Combining           29  size          690  flops    156596841931.034     
 Combining           30  size          690  flops    151376947200.000     
 Combining           31  size          696  flops    150348725214.968     
 Combining           32  size          708  flops    153314601984.000     
 Combining           33  size          726  flops    160298569728.000     
 Combining           34  size          732  flops    159473325718.588     
 Combining           35  size          762  flops    174755396110.629     
 Combining           36  size          774  flops    178054972416.000     
 Combining           37  size          774  flops    173242675864.216     
 Combining           38  size          834  flops    211031983265.684     
 Combining           39  size          882  flops    243206329580.308     
 Combining           40  size          912  flops    262155062476.800     
 Combining           41  size          912  flops    255761036562.732     
 Combining           42  size          954  flops    285778504265.143     
 Combining           43  size          990  flops    311939845953.488     
 Combining           44  size         1008  flops    321782665588.364     
 Combining           45  size         1044  flops    349560786124.800     
 Combining           46  size         1062  flops    359956022049.391     
 Combining           47  size         1062  flops    352297383282.383     
 Combining           48  size         1086  flops    368877328128.000     
 Combining           49  size         1116  flops    392130144047.020     
 Combining           50  size         1134  flops    403183624273.920     
 Combining           51  size         1152  flops    414401182780.235     
 Combining           52  size         1152  flops    406431929265.231     
 Combining           53  size         1158  flops    405026588246.943     
 Combining           54  size         1158  flops    397526095872.000     
 Combining           55  size         1170  flops    402558147490.909     
 Combining           56  size         1170  flops    395369609142.857     
 Combining           57  size         1176  flops    394439895147.789     
 Combining           58  size         1176  flops    387639207300.414     
 Combining           59  size         1188  flops    392853869724.203     
 Combining           60  size         1188  flops    386306305228.800     
 Combining           61  size         1218  flops    409492314347.016     
 Combining           62  size         1218  flops    402887599599.484     
 Combining           63  size         1218  flops    396492558336.000     
 Combining           64  size         1230  flops    401947272000.000     
 Combining           65  size         1248  flops    413393957683.200     
 Combining           66  size         1254  flops    413030762496.000     
 Combining           67  size         1284  flops    436771199679.045     
 Combining           68  size         1296  flops    442527044306.824     
 Combining           69  size         1296  flops    436113608882.087     
 Combining           70  size         1356  flops    492396269216.914     
 Combining           71  size         1404  flops    538860934331.493     
 Combining           72  size         1434  flops    566172384768.000     
 Combining           73  size         1434  flops    558416598675.288     
 Combining           74  size         1476  flops    600704766284.108     
 Combining           75  size         1512  flops    637129677864.960     
 Combining           76  size         1530  flops    651470005894.737     
 Combining           77  size         1566  flops    689474602502.649     
 Combining           78  size         1584  flops    704376169078.154     
 Combining           79  size         1584  flops    695460015039.190     
 Combining           80  size         1608  flops    718458804633.600     
 Combining           81  size         1638  flops    750050316288.000     
 Combining           82  size         1656  flops    765598140765.659     
 Combining           83  size         1674  flops    781307500864.771     
 Combining           84  size         1674  flops    772006221092.571     
 Combining           85  size         1680  flops    771156714917.647     
 Combining           86  size         1680  flops    762189776372.093     
 Using            1  block columns to construct a submatrix
 Threads(OMP/MKL):            1 /           1
 Rank           0 processing submatrix           1 size          78
 Rank           0 processing submatrix           2 size          60
 Rank           0 processing submatrix           3 size          90
 Rank           0 processing submatrix           4 size          66
 Rank           0 processing submatrix           5 size          84
 Rank           0 processing submatrix           6 size          66
 Rank           0 processing submatrix           7 size          66
 Rank           0 processing submatrix           8 size          72
 Rank           0 processing submatrix           9 size          66
 Rank           0 processing submatrix          10 size          78
 Rank           0 processing submatrix          11 size          66
 Rank           0 processing submatrix          12 size          48
 Rank           0 processing submatrix          13 size          72
 Rank           0 processing submatrix          14 size          72
 Rank           0 processing submatrix          15 size          66
 Rank           0 processing submatrix          16 size          78
 Rank           0 processing submatrix          17 size          90
 Rank           0 processing submatrix          18 size          66
 Rank           0 processing submatrix          19 size          78
 Rank           0 processing submatrix          20 size          84
 Rank           0 processing submatrix          21 size          72
 Rank           0 processing submatrix          22 size          66
 Rank           0 processing submatrix          23 size          72
 Rank           0 processing submatrix          24 size          90
 Rank           0 processing submatrix          25 size          60
 Rank           0 processing submatrix          26 size          42
 Rank           0 processing submatrix          27 size          72
 Rank           0 processing submatrix          28 size          78
 Rank           0 processing submatrix          29 size          90
 Rank           0 processing submatrix          30 size          72
 Rank           0 processing submatrix          31 size          72
 Rank           0 processing submatrix          32 size          78
 Rank           0 processing submatrix          33 size          78
 Rank           0 processing submatrix          34 size          60
 Rank           0 processing submatrix          35 size          90
 Rank           0 processing submatrix          36 size          66
 Rank           0 processing submatrix          37 size          84
 Rank           0 processing submatrix          38 size          66
 Rank           0 processing submatrix          39 size          66
 Rank           0 processing submatrix          40 size          72
 Rank           0 processing submatrix          41 size          66
 Rank           0 processing submatrix          42 size          78
 Rank           0 processing submatrix          43 size          66
 Rank           0 processing submatrix          44 size          48
 Rank           0 processing submatrix          45 size          72
 Rank           0 processing submatrix          46 size          72
 Rank           0 processing submatrix          47 size          66
 Rank           0 processing submatrix          48 size          78
 Rank           0 processing submatrix          49 size          90
 Rank           0 processing submatrix          50 size          66
 Rank           0 processing submatrix          51 size          78
 Rank           0 processing submatrix          52 size          84
 Rank           0 processing submatrix          53 size          72
 Rank           0 processing submatrix          54 size          66
 Rank           0 processing submatrix          55 size          72
 Rank           0 processing submatrix          56 size          90
 Rank           0 processing submatrix          57 size          60
 Rank           0 processing submatrix          58 size          42
 Rank           0 processing submatrix          59 size          72
 Rank           0 processing submatrix          60 size          78
 Rank           0 processing submatrix          61 size          90
 Rank           0 processing submatrix          62 size          72
 Rank           0 processing submatrix          63 size          72
 Rank           0 processing submatrix          64 size          78
 Rank           0 processing submatrix          65 size          78
 Rank           0 processing submatrix          66 size          60
 Rank           0 processing submatrix          67 size          90
 Rank           0 processing submatrix          68 size          66
 Rank           0 processing submatrix          69 size          84
 Rank           0 processing submatrix          70 size          66
 Rank           0 processing submatrix          71 size          66
 Rank           0 processing submatrix          72 size          72
 Rank           0 processing submatrix          73 size          66
 Rank           0 processing submatrix          74 size          78
 Rank           0 processing submatrix          75 size          66
 Rank           0 processing submatrix          76 size          48
 Rank           0 processing submatrix          77 size          72
 Rank           0 processing submatrix          78 size          72
 Rank           0 processing submatrix          79 size          66
 Rank           0 processing submatrix          80 size          78
 Rank           0 processing submatrix          81 size          90
 Rank           0 processing submatrix          82 size          66
 Rank           0 processing submatrix          83 size          78
 Rank           0 processing submatrix          84 size          84
 Rank           0 processing submatrix          85 size          72
 Rank           0 processing submatrix          86 size          66
 Rank           0 processing submatrix          87 size          72
 matrix_sign_submatrix took   0.116329908370972     
 Deviation from idempotency:       0.298391295690
 Energy Tr(DK)  -12162.321128547414
 Density matrix:  iter, mu, trace error:  3   0.040000000     0.839798695
 Combining            1  size           78  flops    6560206848.00000     
 Combining            2  size          132  flops    15897378816.0000     
 Combining            3  size          186  flops    29651816448.0000     
 Combining            4  size          204  flops    29340278784.0000     
 Combining            5  size          210  flops    25604812800.0000     
 Combining            6  size          270  flops    45349632000.0000     
 Combining            7  size          318  flops    63506334281.1429     
 Combining            8  size          348  flops    72825163776.0000     
 Combining            9  size          348  flops    64733478912.0000     
 Combining           10  size          390  flops    82002585600.0000     
 Combining           11  size          426  flops    97156047220.3636     
 Combining           12  size          444  flops    100832698368.000     
 Combining           13  size          480  flops    117601831384.615     
 Combining           14  size          498  flops    121953345243.429     
 Combining           15  size          498  flops    113823122227.200     
 Combining           16  size          522  flops    122892463872.000     
 Combining           17  size          570  flops    150594590117.647     
 Combining           18  size          588  flops    156132458496.000     
 Combining           19  size          618  flops    171729754650.947     
 Combining           20  size          624  flops    167941295308.800     
 Combining           21  size          630  flops    164602368000.000     
 Combining           22  size          630  flops    157120442181.818     
 Combining           23  size          642  flops    159041686839.652     
 Combining           24  size          642  flops    152414949888.000     
 Combining           25  size          648  flops    150459195064.320     
 Combining           26  size          648  flops    144672302946.462     
 Combining           27  size          660  flops    147197952000.000     
 Combining           28  size          660  flops    141940882285.714     
 Combining           29  size          690  flops    156596841931.034     
 Combining           30  size          690  flops    151376947200.000     
 Combining           31  size          696  flops    150348725214.968     
 Combining           32  size          708  flops    153314601984.000     
 Combining           33  size          726  flops    160298569728.000     
 Combining           34  size          732  flops    159473325718.588     
[...]
 ls_scf_store_result                  1  5.0    0.000    0.000    0.081    0.091
 mp_sum_i                            14  5.4    0.088    0.089    0.088    0.089
 fft_wrap_pw1pw2_20                   4 13.0    0.005    0.007    0.073    0.088
 rs_pw_transfer_PW2RS_20              2 13.5    0.019    0.023    0.070    0.086
 setup_rec_index_2d                 206  9.0    0.052    0.084    0.052    0.084
 restraint_control                    1  2.0    0.000    0.000    0.082    0.083
 multiply_cannon_multrec_finali     103 11.0    0.000    0.000    0.025    0.077
 dbcsr_mm_multrec_finalize          103 12.0    0.010    0.056    0.025    0.077
 create_qs_kind_set                   1  2.0    0.000    0.000    0.065    0.072
 read_qs_kind                         2  3.0    0.009    0.012    0.065    0.072
 merge_index                        173 10.3    0.062    0.070    0.062    0.070
 mp_isend_dm3                       114 12.3    0.050    0.068    0.050    0.068
 parser_read_line                  2946  4.0    0.001    0.001    0.056    0.062
 dbcsr_desymmetrize_deep              2  7.5    0.031    0.034    0.058    0.062
 parser_read_line_low                 5  5.0    0.003    0.006    0.055    0.061
 make_images_pack                   206 10.0    0.043    0.060    0.043    0.061
 mp_sum_dv                          332 11.5    0.048    0.060    0.048    0.060
 broadcast_input_information          5  6.0    0.000    0.000    0.052    0.058
 dbcsr_special_finalize             618 10.0    0.001    0.003    0.032    0.056
 rs_pw_transfer_RS2PW_20              2 10.5    0.017    0.021    0.043    0.054
 mp_bcast_b                          68 10.0    0.040    0.052    0.040    0.052
 cp_dbcsr_alloc_block_from_nbl        5  5.4    0.031    0.033    0.048    0.051
 pw_zero                              2  9.5    0.047    0.049    0.047    0.049
 build_neighbor_lists_sab_all         1  5.0    0.045    0.048    0.045    0.048
 dbcsr_merge_single_wm              515 11.0    0.009    0.019    0.024    0.045
 mp_allgather_i34                   103  9.0    0.027    0.045    0.027    0.045
 dbcsr_frobenius_norm                27  7.4    0.003    0.003    0.030    0.045
 mp_bcast_am                          5  7.0    0.044    0.044    0.045    0.045
 multiply_cannon_metrocomm2        1545 10.0    0.005    0.007    0.029    0.042
 dbcsr_multiply_generic_mpsum_f      24  8.7    0.000    0.000    0.027    0.041
 dbcsr_dot_sd                         5  9.2    0.010    0.026    0.038    0.040
 dbcsr_sort_indices                 795 11.5    0.033    0.037    0.033    0.037
 dbcsr_rep_row_to_rep_col_vec        67 11.1    0.013    0.014    0.030    0.035
 rs_pw_transfer_PW2RS_10              2 13.5    0.006    0.007    0.030    0.034
 dbcsr_mm_multrec_init              103  9.0    0.001    0.001    0.032    0.034
 build_neighbor_lists_sab_orb         1  5.0    0.031    0.033    0.031    0.033
 dbcsr_col_vec_to_rep_row            67 11.1    0.002    0.004    0.030    0.033
 dbcsr_mm_csr_init                  103 10.0    0.007    0.008    0.031    0.033
 pw_poisson_rebuild                   2 10.5    0.032    0.033    0.032    0.033
 dbcsr_copy                         378  9.0    0.010    0.011    0.031    0.033
 create_fast_col_vec_access         134 11.1    0.000    0.000    0.026    0.032
 create_fast_col_vec_access_d       134 12.1    0.025    0.032    0.026    0.032
 dbcsr_create_new                  1717  9.8    0.012    0.013    0.026    0.031
 dbcsr_sym_m_v_mult_local_mm         67 11.1    0.024    0.030    0.024    0.031
 buffer_matrices_ensure_size        206  9.0    0.023    0.030    0.023    0.030
 evaluate_core_matrix_traces          2  7.5    0.000    0.000    0.029    0.030
 calculate_ptrace_kp                  4  8.5    0.000    0.000    0.029    0.030
 pw_grid_distribute                   4  8.0    0.026    0.026    0.028    0.028
 mp_sum_iv                           99  9.0    0.025    0.028    0.025    0.028
 topology_control                     1  2.0    0.000    0.000    0.025    0.026
 fill_hash_tables                   103 11.0    0.024    0.025    0.024    0.025
 load_balance_replicated              1  8.0    0.005    0.006    0.025    0.025
 dbcsr_copy_into_existing             2  6.5    0.021    0.023    0.021    0.023
 quick_finalize                     125 10.8    0.001    0.002    0.018    0.022
 multrec_filtering                   95 13.0    0.015    0.021    0.015    0.021
 connectivity_control                 1  3.0    0.000    0.000    0.020    0.021
 fft_wrap_pw1pw2_10                   4 13.0    0.001    0.001    0.013    0.021
 mp_max_i                           385  1.7    0.017    0.021    0.017    0.021
 mp_bcast_dv                         67 12.1    0.017    0.021    0.017    0.021
 dbcsr_data_new                    3595 10.4    0.014    0.020    0.014    0.020
 dbcsr_reserve_blocks                14  9.6    0.006    0.008    0.017    0.020
 external_control                     2  5.0    0.000    0.001    0.010    0.020
 mp_bcast_i                         106  2.9    0.013    0.020    0.013    0.020
 rs_pw_transfer_RS2PW_10              2 10.5    0.006    0.008    0.017    0.019
 distribute_molecules_2d              1  4.0    0.007    0.007    0.018    0.019
 dbcsr_make_dbcsr_index             832 11.6    0.013    0.019    0.013    0.019
 dbcsr_add_on_diag                   38  7.3    0.003    0.004    0.014    0.017
 pw_scale                             2  9.5    0.014    0.016    0.014    0.016
 mp_allgatherv_iv                    22  9.0    0.014    0.016    0.014    0.016
 setup_buffer_matrices              206  9.0    0.001    0.002    0.011    0.016
 dbcsr_add_d                         21  7.3    0.000    0.000    0.012    0.016
 dbcsr_add_anytype                   21  8.3    0.004    0.005    0.012    0.016
 dbcsr_sort_data                    614 11.7    0.013    0.016    0.013    0.016
 mp_isend_iv                       4436 11.0    0.010    0.016    0.010    0.016
 Gram_Schmidt_ortho_d                65 10.1    0.001    0.010    0.005    0.015
 calculate_atomic_block_dm            1  7.0    0.003    0.004    0.013    0.014
 calculate_ecore_overlap              1  4.0    0.000    0.000    0.007    0.013
 qs_env_rebuild_rho                   1  5.0    0.000    0.000    0.010    0.013
 qs_rho_rebuild                       1  6.0    0.000    0.000    0.010    0.013
 mp_alltoall_i22                      9  9.0    0.009    0.013    0.009    0.013
 arnoldi_init                         2  9.5    0.000    0.001    0.009    0.013
 dbcsr_distribution_new             217  8.1    0.011    0.012    0.011    0.012
 dbcsr_make_index_exist            1717 10.8    0.010    0.012    0.010    0.012
 dbcsr_make_untransposed_blocks     103  8.0    0.009    0.011    0.009    0.012
 make_basic_spatial_distributio       1  5.0    0.011    0.012    0.011    0.012
 mp_comm_dup                          8  6.5    0.011    0.011    0.011    0.011
 dbcsr_data_copy_aa2                 29 11.5    0.010    0.011    0.010    0.011
 mp_bcast_av                        449  1.0    0.003    0.003    0.011    0.011
 mp_irecv_dm3                       114 12.3    0.003    0.011    0.003    0.011
 build_neighbor_lists_sab_core        1  5.0    0.010    0.011    0.010    0.011
 topology_generate_bond               1  4.0    0.000    0.000    0.010    0.011
 topology_generate_bond_3             1  5.0    0.000    0.000    0.010    0.010
 build_fist_neighbor_lists            1  6.0    0.000    0.000    0.010    0.010
 build_neighbor_lists                 1  7.0    0.009    0.010    0.009    0.010
 dbcsr_destroy                     1674  8.6    0.004    0.006    0.007    0.010
 dbcsr_data_release                6135 10.5    0.007    0.010    0.007    0.010
 mp_irecv_dv                       6269 10.6    0.007    0.010    0.007    0.010
 mp_maxloc_dv                       899  1.0    0.008    0.008    0.008    0.008
 mp_allgather_l                       9  9.4    0.006    0.008    0.006    0.008
 mp_sum_lv                            7  5.4    0.004    0.008    0.004    0.008
 DGKS_ortho_d                        65 10.1    0.000    0.007    0.001    0.008
 get_fft_scratch                     22 14.0    0.004    0.008    0.004    0.008
 mp_sum_im                            5  6.8    0.007    0.008    0.007    0.008
 dbcsr_scale_anytype                 48  8.8    0.005    0.007    0.005    0.007
 create_fast_row_vec_access         134 11.1    0.000    0.000    0.005    0.007
 create_fast_row_vec_access_d       134 12.1    0.005    0.007    0.005    0.007
 dbcsr_filter_anytype                11  7.0    0.003    0.003    0.006    0.007
 write_qs_kind_set                    1  3.0    0.000    0.007    0.000    0.007
 dbcsr_new_transposed                 4  7.5    0.000    0.001    0.006    0.006
 dbcsr_scale_d                       27  7.5    0.000    0.000    0.004    0.006
 dbcsr_redistribute                   4  8.5    0.002    0.003    0.005    0.006
 dbcsr_get_data_size_used           195  9.4    0.005    0.006    0.005    0.006
 dbcsr_work_destroy_all             813 10.6    0.002    0.004    0.003    0.005
 topology_generate_molecule           1  4.0    0.005    0.005    0.005    0.005
 calculate_atom                       2  8.0    0.000    0.000    0.000    0.005
 calculate_atom_restricted            2  9.0    0.000    0.005    0.000    0.005
 fft3d_s                              1  2.0    0.000    0.000    0.003    0.005
 dbcsr_make_index_list              618  9.0    0.004    0.005    0.004    0.005
 mp_irecv_iv                       5296 10.6    0.003    0.005    0.003    0.005
 topology_molecules_check             1  4.0    0.004    0.004    0.004    0.004
 mp_comm_free                        13  2.6    0.000    0.004    0.000    0.004
 dbcsr_work_create                  813  9.6    0.002    0.003    0.002    0.004
 mp_cart_create                       5  9.2    0.002    0.004    0.002    0.004
 arnoldi_iram                         1  9.0    0.002    0.003    0.002    0.003
 ls_scf_release                       1  2.0    0.000    0.003    0.000    0.003
 dbcsr_iterator_start              1192 11.1    0.002    0.002    0.002    0.003
 dbcsr_make_index_local_row         618  9.0    0.002    0.002    0.002    0.002
 topology_coordinate_pack             1  3.0    0.000    0.000    0.002    0.002
 ls_scf_create                        1  2.0    0.000    0.000    0.000    0.002
 ls_scf_init_read_write_input         1  3.0    0.000    0.002    0.000    0.002
 topology_connectivity_pack           1  3.0    0.000    0.000    0.002    0.002
 pw_pool_create_pw                   48 10.2    0.000    0.000    0.001    0.002
 pw_create                           21 10.7    0.001    0.002    0.001    0.002
 mp_bcast_im                          3 10.3    0.002    0.002    0.002    0.002
 dbcsr_iterator_stop               1192 11.1    0.001    0.001    0.001    0.002
 create_col_vec_from_matrix           5  9.4    0.000    0.000    0.001    0.002
 dbcsr_add_wm_from_matrix             4  7.8    0.000    0.000    0.001    0.002
 dbcsr_set                          277 11.4    0.000    0.000    0.001    0.002
 dbcsr_fill_wm_from_matrix            4  8.8    0.001    0.002    0.001    0.002
 topology_coordinate_pack_3           1  4.0    0.001    0.002    0.001    0.002
 mp_bcast_iv                         12  6.6    0.001    0.002    0.001    0.002
 dbcsr_zero                         277 12.4    0.001    0.001    0.001    0.001
 rs_grid_create_descriptor            4  6.0    0.001    0.001    0.001    0.001
 mp_send_iv                         880  9.0    0.001    0.001    0.001    0.001
 topology_muc                         1  4.0    0.001    0.001    0.001    0.001
 compute_max_radius                   1  6.0    0.001    0.001    0.001    0.001
 write_qs_control                     1  3.0    0.000    0.001    0.000    0.001
 init_cube_info                       4  6.0    0.001    0.001    0.001    0.001
 write_dft_control                    1  3.0    0.000    0.001    0.000    0.001
 dbcsr_reserve_all_blocks             9 10.4    0.000    0.000    0.000    0.001
 lgrid_allocate_grid                  1  9.0    0.000    0.001    0.000    0.001
 distribute_molecules_1d              1  3.0    0.001    0.001    0.001    0.001
 topology_connectivity_pack_3         1  4.0    0.001    0.001    0.001    0.001
 pw_grid_allocate                     4  8.0    0.001    0.001    0.001    0.001
 dbcsr_switch_data_area             331 10.0    0.000    0.000    0.001    0.001
 atom2d_build                         1  5.0    0.001    0.001    0.001    0.001
 dbcsr_iterator_seek               1192 12.1    0.001    0.001    0.001    0.001
 matrix_ls_create                     1  5.0    0.000    0.000    0.000    0.001
 compute_evals                        3  9.3    0.000    0.001    0.000    0.001
 topology_generate_bond_4             1  5.0    0.000    0.001    0.000    0.001
 mp_sync                              4  7.0    0.000    0.001    0.000    0.001
 create_replicated_col_vec_from       2  9.5    0.000    0.000    0.000    0.000
 coordinate_control                   1  3.0    0.000    0.000    0.000    0.000
 coordinate_control_READ_COORDI       1  4.0    0.000    0.000    0.000    0.000
 read_atoms_input                     1  5.0    0.000    0.000    0.000    0.000
 topology_coordinate_pack_7b          1  4.0    0.000    0.000    0.000    0.000
 atom_int_setup                       2  8.0    0.000    0.000    0.000    0.000
 mp_sum_b                            14  7.4    0.000    0.000    0.000    0.000
 transpose_index_local                4  8.5    0.000    0.000    0.000    0.000
 mp_cart_sub                          2 10.0    0.000    0.000    0.000    0.000
 topology_constraint_pack             1  3.0    0.000    0.000    0.000    0.000
 topology_connectivity_pack_9         1  4.0    0.000    0.000    0.000    0.000
 mp_min_i                            12  6.0    0.000    0.000    0.000    0.000
 topology_coordinate_pack_7a          1  4.0    0.000    0.000    0.000    0.000
 topology_constraint_pack_1           1  4.0    0.000    0.000    0.000    0.000
 mp_environ_l                       123  4.7    0.000    0.000    0.000    0.000
 dbcsr_mm_sched_init                103 11.0    0.000    0.000    0.000    0.000
 dbcsr_finalize_lib                   1  2.0    0.000    0.000    0.000    0.000
 mp_max_lv                            4  8.0    0.000    0.000    0.000    0.000
 topology_generate_bend               1  4.0    0.000    0.000    0.000    0.000
 topology_connectivity_pack_1         1  4.0    0.000    0.000    0.000    0.000
 init_qs_kind_set                     1  3.0    0.000    0.000    0.000    0.000
 init_qs_kind                         2  4.0    0.000    0.000    0.000    0.000
 init_orb_basis_set                   2  5.0    0.000    0.000    0.000    0.000
 mp_comm_compare                     24 13.7    0.000    0.000    0.000    0.000
 init_cphi_and_sphi                   2  6.0    0.000    0.000    0.000    0.000
 mp_min_lv                            4  8.0    0.000    0.000    0.000    0.000
 topology_connectivity_pack_10        1  4.0    0.000    0.000    0.000    0.000
 mp_rank_compare                     21 14.5    0.000    0.000    0.000    0.000
 topology_generate_molecule_PAR       1  5.0    0.000    0.000    0.000    0.000
 rs_grid_create                       8  6.5    0.000    0.000    0.000    0.000
 create_replicated_row_vec_from       2  9.5    0.000    0.000    0.000    0.000
 topology_coordinate_pack_5           1  4.0    0.000    0.000    0.000    0.000
 dbcsr_get_local_rows               103  8.0    0.000    0.000    0.000    0.000
 release_fast_vec_access            268 11.1    0.000    0.000    0.000    0.000
 topology_connectivity_pack_6         1  4.0    0.000    0.000    0.000    0.000
 mp_sum_r                             1  2.0    0.000    0.000    0.000    0.000
 init_interaction_radii               1  3.0    0.000    0.000    0.000    0.000
 topology_connectivity_pack_7         1  4.0    0.000    0.000    0.000    0.000
 topology_generate_dihe               1  4.0    0.000    0.000    0.000    0.000
 connectivity_control_check_ele       1  4.0    0.000    0.000    0.000    0.000
 mp_environ_c                        21 14.5    0.000    0.000    0.000    0.000
 mp_cart_coords                     320  9.0    0.000    0.000    0.000    0.000
 dbcsr_mm_sched_finalize            103 13.0    0.000    0.000    0.000    0.000
 create_grid_atom                     2  8.0    0.000    0.000    0.000    0.000
 dbcsr_get_local_cols               103  8.0    0.000    0.000    0.000    0.000
 mp_max_d                             1  1.0    0.000    0.000    0.000    0.000
 topology_connectivity_pack_8         1  4.0    0.000    0.000    0.000    0.000
 topology_connectivity_pack_11        1  4.0    0.000    0.000    0.000    0.000
 dbcsr_index_compact                  7  7.6    0.000    0.000    0.000    0.000
 topology_generate_ub                 1  4.0    0.000    0.000    0.000    0.000
 dump_info_core_hamiltonian           1  5.0    0.000    0.000    0.000    0.000
 atom_ppint_setup                     2  8.0    0.000    0.000    0.000    0.000
 mp_max_r                             1  2.0    0.000    0.000    0.000    0.000
 pw_pool_give_back_pw                50 10.9    0.000    0.000    0.000    0.000
 dbcsr_get_global_col_map           103  8.0    0.000    0.000    0.000    0.000
 dbcsr_get_global_row_map           103  8.0    0.000    0.000    0.000    0.000
 topology_coordinate_pack_6           1  4.0    0.000    0.000    0.000    0.000
 topology_connectivity_pack_12        1  4.0    0.000    0.000    0.000    0.000
 qs_energies_properties               1  3.0    0.000    0.000    0.000    0.000
 topology_generate_bond_1             1  5.0    0.000    0.000    0.000    0.000
 sort_neighbor_lists                  1  7.0    0.000    0.000    0.000    0.000
 topology_connectivity_pack_1.1       1  4.0    0.000    0.000    0.000    0.000
 topology_connectivity_pack_12_       1  4.0    0.000    0.000    0.000    0.000
 calculate_atom_vxc_lda               2 10.0    0.000    0.000    0.000    0.000
 scf_c_create                         1  3.0    0.000    0.000    0.000    0.000
 topology_connectivity_pack_11_       1  4.0    0.000    0.000    0.000    0.000
 dbcsr_mm_hostdrv_init              103 12.0    0.000    0.000    0.000    0.000
 mp_sum_lm3                           1  2.0    0.000    0.000    0.000    0.000
 topology_generate_onfo               1  4.0    0.000    0.000    0.000    0.000
 scf_c_read_parameters                1  3.0    0.000    0.000    0.000    0.000
 check_generate_mol                   1  6.0    0.000    0.000    0.000    0.000
 topology_connectivity_pack_4         1  4.0    0.000    0.000    0.000    0.000
 fist_neighbor_init                   1  8.0    0.000    0.000    0.000    0.000
 topology_coordinate_pack_10          1  4.0    0.000    0.000    0.000    0.000
 read_qs_section                      1  3.0    0.000    0.000    0.000    0.000
 topology_coordinate_pack_1           1  4.0    0.000    0.000    0.000    0.000
 topology_generate_bond_2             1  5.0    0.000    0.000    0.000    0.000
 -------------------------------------------------------------------------------

 The number of warnings for this run is : 1
 
 -------------------------------------------------------------------------------
  **** **** ******  **  PROGRAM ENDED AT                 2020-04-15 18:23:01.321
 ***** ** ***  *** **   PROGRAM RAN ON                                   cn-0019
 **    ****   ******    PROGRAM RAN BY                                      lass
 ***** **    ** ** **   PROGRAM PROCESS ID                                428520
  **** **  *******  **  PROGRAM STOPPED IN /scratch/hpc-prf-ldft/lass/lass20_sc/
                                           eval/software/varying-eps/2nd run
