 DBCSR| CPU Multiplication driver                                           XSMM
 DBCSR| Multrec recursion limit                                              512
 DBCSR| Multiplication stack size                                           1000
 DBCSR| Maximum elements for images                                    UNLIMITED
 DBCSR| Multiplicative factor virtual images                                   1
 DBCSR| Use multiplication densification                                       T
 DBCSR| Multiplication size stacks                                             3
 DBCSR| Use memory pool for CPU allocation                                     F
 DBCSR| Number of 3D layers                                               SINGLE
 DBCSR| Use MPI memory allocation                                              F
 DBCSR| Use RMA algorithm                                                      F
 DBCSR| Use Communication thread                                               T
 DBCSR| Communication thread load                                             87


  **** **** ******  **  PROGRAM STARTED AT               2020-05-27 14:57:27.901
 ***** ** ***  *** **   PROGRAM STARTED ON                               cn-0252
 **    ****   ******    PROGRAM STARTED BY                                  lass
 ***** **    ** ** **   PROGRAM PROCESS ID                                 83595
  **** **  *******  **  PROGRAM STARTED IN /scratch/hpc-prf-ldft/lass/lass20_sc/
                                           eval/linscaling-error-varying-size

 CP2K| version string:                    CP2K version 8.0 (Development Version)
 CP2K| source code revision number:                                  git:28e460e
 CP2K| cp2kflags: omp libint fftw3 libxc elpa parallel mpi3 scalapack xsmm max_c
 CP2K|            ontr=4 mkl
 CP2K| is freely available from                            https://www.cp2k.org/
 CP2K| Program compiled at                         Sa 11. Apr 21:37:19 CEST 2020
 CP2K| Program compiled on                                               ln-0001
 CP2K| Program compiled for                                   Linux-x86-64-intel
 CP2K| Data directory path                  /scratch/hpc-prf-ldft/lass/cp2k/data
 CP2K| Input file name                                                 input.inp
 
 GLOBAL| Force Environment number                                              1
 GLOBAL| Basis set file name                                        BASIS_MOLOPT
 GLOBAL| Potential file name                                           POTENTIAL
 GLOBAL| MM Potential file name                                     MM_POTENTIAL
 GLOBAL| Coordinate file name                                      __STD_INPUT__
 GLOBAL| Method name                                                        CP2K
 GLOBAL| Project name                                                        H2O
 GLOBAL| Preferred FFT library                                             FFTW3
 GLOBAL| Preferred diagonalization lib.                                     ELPA
 GLOBAL| Run type                                                         ENERGY
 GLOBAL| All-to-all communication in single precision                          F
 GLOBAL| FFTs using library dependent lengths                                  T
 GLOBAL| Global print level                                               MEDIUM
 GLOBAL| MPI I/O enabled                                                       T
 GLOBAL| Total number of message passing processes                            80
 GLOBAL| Number of threads for this process                                    1
 GLOBAL| This output is from process                                           0
 GLOBAL| CPU model name                 Intel(R) Xeon(R) Gold 6148 CPU @ 2.40GHz
 GLOBAL| CPUID                                                              1003

 MEMORY| system memory details [Kb]
 MEMORY|                        rank 0           min           max       average
 MEMORY| MemTotal            196699340     196699340     196699356     196699348
 MEMORY| MemFree             165495656     165495656     170937952     168216563
 MEMORY| Buffers                     0             0             0             0
 MEMORY| Cached                6707700       6707700       6827880       6767790
 MEMORY| Slab                 15621364      11015012      15621364      13318188
 MEMORY| SReclaimable          3766304       1878920       3766304       2822612
 MEMORY| MemLikelyFree       175969660     175969660     179644752     177806965


 *** Fundamental physical constants (SI units) ***

 *** Literature: B. J. Mohr and B. N. Taylor,
 ***             CODATA recommended values of the fundamental physical
 ***             constants: 2006, Web Version 5.1
 ***             http://physics.nist.gov/constants

 Speed of light in vacuum [m/s]                             2.99792458000000E+08
 Magnetic constant or permeability of vacuum [N/A**2]       1.25663706143592E-06
 Electric constant or permittivity of vacuum [F/m]          8.85418781762039E-12
 Planck constant (h) [J*s]                                  6.62606896000000E-34
 Planck constant (h-bar) [J*s]                              1.05457162825177E-34
 Elementary charge [C]                                      1.60217648700000E-19
 Electron mass [kg]                                         9.10938215000000E-31
 Electron g factor [ ]                                     -2.00231930436220E+00
 Proton mass [kg]                                           1.67262163700000E-27
 Fine-structure constant                                    7.29735253760000E-03
 Rydberg constant [1/m]                                     1.09737315685270E+07
 Avogadro constant [1/mol]                                  6.02214179000000E+23
 Boltzmann constant [J/K]                                   1.38065040000000E-23
 Atomic mass unit [kg]                                      1.66053878200000E-27
 Bohr radius [m]                                            5.29177208590000E-11

 *** Conversion factors ***

 [u] -> [a.u.]                                              1.82288848426455E+03
 [Angstrom] -> [Bohr] = [a.u.]                              1.88972613288564E+00
 [a.u.] = [Bohr] -> [Angstrom]                              5.29177208590000E-01
 [a.u.] -> [s]                                              2.41888432650478E-17
 [a.u.] -> [fs]                                             2.41888432650478E-02
 [a.u.] -> [J]                                              4.35974393937059E-18
 [a.u.] -> [N]                                              8.23872205491840E-08
 [a.u.] -> [K]                                              3.15774647902944E+05
 [a.u.] -> [kJ/mol]                                         2.62549961709828E+03
 [a.u.] -> [kcal/mol]                                       6.27509468713739E+02
 [a.u.] -> [Pa]                                             2.94210107994716E+13
 [a.u.] -> [bar]                                            2.94210107994716E+08
 [a.u.] -> [atm]                                            2.90362800883016E+08
 [a.u.] -> [eV]                                             2.72113838565563E+01
 [a.u.] -> [Hz]                                             6.57968392072181E+15
 [a.u.] -> [1/cm] (wave numbers)                            2.19474631370540E+05
 [a.u./Bohr**2] -> [1/cm]                                   5.14048714338585E+03
 

 CELL_TOP| Volume [angstrom^3]:                                          956.487
 CELL_TOP| Vector a [angstrom     9.853     0.000     0.000    |a| =       9.853
 CELL_TOP| Vector b [angstrom     0.000     9.853     0.000    |b| =       9.853
 CELL_TOP| Vector c [angstrom     0.000     0.000     9.853    |c| =       9.853
 CELL_TOP| Angle (b,c), alpha [degree]:                                   90.000
 CELL_TOP| Angle (a,c), beta  [degree]:                                   90.000
 CELL_TOP| Angle (a,b), gamma [degree]:                                   90.000
 CELL_TOP| Numerically orthorhombic:                                         YES
 
 GENERATE|  Preliminary Number of Bonds generated:                            64
 GENERATE|  Achieved consistency in connectivity generation.
 GENERATE|  Number of Bonds generated:                                        64
 GENERATE|  Preliminary Number of Bends generated:                            32
 GENERATE|  Number of Bends generated:                                        32
 GENERATE|  Number of UB generated:                                           32
 GENERATE|  Preliminary Number of Torsions generated:                          0

 CELL| Volume [angstrom^3]:                                              956.487
 CELL| Vector a [angstrom]:       9.853     0.000     0.000    |a| =       9.853
 CELL| Vector b [angstrom]:       0.000     9.853     0.000    |b| =       9.853
 CELL| Vector c [angstrom]:       0.000     0.000     9.853    |c| =       9.853
 CELL| Angle (b,c), alpha [degree]:                                       90.000
 CELL| Angle (a,c), beta  [degree]:                                       90.000
 CELL| Angle (a,b), gamma [degree]:                                       90.000
 CELL| Numerically orthorhombic:                                             YES

 CELL_REF| Volume [angstrom^3]:                                          956.487
 CELL_REF| Vector a [angstrom     9.853     0.000     0.000    |a| =       9.853
 CELL_REF| Vector b [angstrom     0.000     9.853     0.000    |b| =       9.853
 CELL_REF| Vector c [angstrom     0.000     0.000     9.853    |c| =       9.853
 CELL_REF| Angle (b,c), alpha [degree]:                                   90.000
 CELL_REF| Angle (a,c), beta  [degree]:                                   90.000
 CELL_REF| Angle (a,b), gamma [degree]:                                   90.000
 CELL_REF| Numerically orthorhombic:                                         YES

 *******************************************************************************
 *******************************************************************************
 **                                                                           **
 **     #####                         ##              ##                      **
 **    ##   ##            ##          ##              ##                      **
 **   ##     ##                       ##            ######                    **
 **   ##     ##  ##   ##  ##   #####  ##  ##   ####   ##    #####    #####    **
 **   ##     ##  ##   ##  ##  ##      ## ##   ##      ##   ##   ##  ##   ##   **
 **   ##  ## ##  ##   ##  ##  ##      ####     ###    ##   ######   ######    **
 **    ##  ###   ##   ##  ##  ##      ## ##      ##   ##   ##       ##        **
 **     #######   #####   ##   #####  ##  ##  ####    ##    #####   ##        **
 **           ##                                                    ##        **
 **                                                                           **
 **                                                ... make the atoms dance   **
 **                                                                           **
 **            Copyright (C) by CP2K developers group (2000 - 2020)           **
 **                                                                           **
 *******************************************************************************

 DFT| Spin restricted Kohn-Sham (RKS) calculation                            RKS
 DFT| Multiplicity                                                             1
 DFT| Number of spin states                                                    1
 DFT| Charge                                                                   0
 DFT| Self-interaction correction (SIC)                                       NO
 DFT| Cutoffs: density                                              1.000000E-10
 DFT|          gradient                                             1.000000E-10
 DFT|          tau                                                  1.000000E-10
 DFT|          cutoff_smoothing_range                               0.000000E+00
 DFT| XC density smoothing                                                  NONE
 DFT| XC derivatives                                                          PW
 FUNCTIONAL| ROUTINE=NEW
 FUNCTIONAL| PADE:
 FUNCTIONAL| S. Goedecker, M. Teter and J. Hutter, Phys. Rev. B 54, 1703 (1996) 

 QS| Method:                                                                 GPW
 QS| Density plane wave grid type                        NON-SPHERICAL FULLSPACE
 QS| Number of grid levels:                                                    4
 QS| Density cutoff [a.u.]:                                                150.0
 QS| Multi grid cutoff [a.u.]: 1) grid level                               150.0
 QS|                           2) grid level                                50.0
 QS|                           3) grid level                                16.7
 QS|                           4) grid level                                 5.6
 QS| Grid level progression factor:                                          3.0
 QS| Relative density cutoff [a.u.]:                                        20.0
 QS| Interaction thresholds: eps_pgf_orb:                                1.0E-05
 QS|                         eps_filter_matrix:                          0.0E+00
 QS|                         eps_core_charge:                            1.0E-12
 QS|                         eps_rho_gspace:                             1.0E-10
 QS|                         eps_rho_rspace:                             1.0E-10
 QS|                         eps_gvg_rspace:                             1.0E-05
 QS|                         eps_ppl:                                    1.0E-02
 QS|                         eps_ppnl:                                   1.0E-07


 ATOMIC KIND INFORMATION

  1. Atomic kind: O                                     Number of atoms:      32

     Orbital Basis Set                                         SZV-MOLOPT-SR-GTH

       Number of orbital shell sets:                                           1
       Number of orbital shells:                                               2
       Number of primitive Cartesian functions:                                5
       Number of Cartesian basis functions:                                    4
       Number of spherical basis functions:                                    4
       Norm type:                                                              2

       Normalised Cartesian orbitals:

                        Set   Shell   Orbital            Exponent    Coefficient

                          1       1    2s               10.389228       0.396646
                                                         3.849621       0.208811
                                                         1.388401      -0.301641
                                                         0.496955      -0.274061
                                                         0.162492      -0.033677

                          1       2    3px              10.389228      -1.530415
                                                         3.849621      -1.371928
                                                         1.388401      -0.761951
                                                         0.496955      -0.253695
                                                         0.162492      -0.035541
                          1       2    3py              10.389228      -1.530415
                                                         3.849621      -1.371928
                                                         1.388401      -0.761951
                                                         0.496955      -0.253695
                                                         0.162492      -0.035541
                          1       2    3pz              10.389228      -1.530415
                                                         3.849621      -1.371928
                                                         1.388401      -0.761951
                                                         0.496955      -0.253695
                                                         0.162492      -0.035541

     GTH Potential information for                                   GTH-PADE-q6

       Description:                       Goedecker-Teter-Hutter pseudopotential
                                           Goedecker et al., PRB 54, 1703 (1996)
                                          Hartwigsen et al., PRB 58, 3641 (1998)
                                                      Krack, TCA 114, 145 (2005)

       Gaussian exponent of the core charge distribution:               8.154466
       Electronic configuration (s p d ...):                               2   4

       Parameters of the local part of the GTH pseudopotential:

                          rloc        C1          C2          C3          C4
                        0.247621  -16.580318    2.395701

       Parameters of the non-local part of the GTH pseudopotential:

                   l      r(l)      h(i,j,l)

                   0    0.221786   18.266917
                   1    0.256829

  2. Atomic kind: H                                     Number of atoms:      64

     Orbital Basis Set                                         SZV-MOLOPT-SR-GTH

       Number of orbital shell sets:                                           1
       Number of orbital shells:                                               1
       Number of primitive Cartesian functions:                                5
       Number of Cartesian basis functions:                                    1
       Number of spherical basis functions:                                    1
       Norm type:                                                              2

       Normalised Cartesian orbitals:

                        Set   Shell   Orbital            Exponent    Coefficient

                          1       1    2s               10.068468      -0.133023
                                                         2.680223      -0.177618
                                                         0.791502      -0.258419
                                                         0.239116      -0.107525
                                                         0.082193      -0.014019

     GTH Potential information for                                   GTH-PADE-q1

       Description:                       Goedecker-Teter-Hutter pseudopotential
                                           Goedecker et al., PRB 54, 1703 (1996)
                                          Hartwigsen et al., PRB 58, 3641 (1998)
                                                      Krack, TCA 114, 145 (2005)

       Gaussian exponent of the core charge distribution:              12.500000
       Electronic configuration (s p d ...):                                   1

       Parameters of the local part of the GTH pseudopotential:

                          rloc        C1          C2          C3          C4
                        0.200000   -4.180237    0.725075


 TOTAL NUMBERS AND MAXIMUM NUMBERS

  Total number of            - Atomic kinds:                                   2
                             - Atoms:                                         96
                             - Shell sets:                                    96
                             - Shells:                                       128
                             - Primitive Cartesian functions:                480
                             - Cartesian basis functions:                    192
                             - Spherical basis functions:                    192

  Maximum angular momentum of- Orbital basis functions:                        1
                             - Local part of the GTH pseudopotential:          2
                             - Non-local part of the GTH pseudopotential:      0

 PW_GRID| Information for grid number                                          1
 PW_GRID| Grid distributed over                                    80 processors
 PW_GRID| Real space group dimensions                                    80    1
 PW_GRID| the grid is blocked:                                                NO
 PW_GRID| Cutoff [a.u.]                                                    150.0
 PW_GRID| spherical cutoff:                                                   NO
 PW_GRID|   Bounds   1            -52      52                Points:         105
 PW_GRID|   Bounds   2            -52      52                Points:         105
 PW_GRID|   Bounds   3            -52      52                Points:         105
 PW_GRID| Volume element (a.u.^3)  0.5576E-02     Volume (a.u.^3)      6454.6933
 PW_GRID| Grid span                                                    FULLSPACE
 PW_GRID|   Distribution                         Average         Max         Min
 PW_GRID|   G-Vectors                            14470.3       14490       14385
 PW_GRID|   G-Rays                                 137.8         138         137
 PW_GRID|   Real Space Points                    14470.3       22050       11025

 PW_GRID| Information for grid number                                          2
 PW_GRID| Number of the reference grid                                         1
 PW_GRID| Grid distributed over                                    80 processors
 PW_GRID| Real space group dimensions                                     8   10
 PW_GRID| the grid is blocked:                                                NO
 PW_GRID| Cutoff [a.u.]                                                     50.0
 PW_GRID| spherical cutoff:                                                   NO
 PW_GRID|   Bounds   1            -30      29                Points:          60
 PW_GRID|   Bounds   2            -30      29                Points:          60
 PW_GRID|   Bounds   3            -30      29                Points:          60
 PW_GRID| Volume element (a.u.^3)  0.2988E-01     Volume (a.u.^3)      6454.6933
 PW_GRID| Grid span                                                    FULLSPACE
 PW_GRID|   Distribution                         Average         Max         Min
 PW_GRID|   G-Vectors                             2700.0        2760        2640
 PW_GRID|   G-Rays                                  45.0          46          44
 PW_GRID|   Real Space Points                     2700.0        2880        2520

 PW_GRID| Information for grid number                                          3
 PW_GRID| Number of the reference grid                                         1
 PW_GRID| Grid distributed over                                    80 processors
 PW_GRID| Real space group dimensions                                     8   10
 PW_GRID| the grid is blocked:                                                NO
 PW_GRID| Cutoff [a.u.]                                                     16.7
 PW_GRID| spherical cutoff:                                                   NO
 PW_GRID|   Bounds   1            -17      17                Points:          35
 PW_GRID|   Bounds   2            -17      17                Points:          35
 PW_GRID|   Bounds   3            -17      17                Points:          35
 PW_GRID| Volume element (a.u.^3)  0.1505         Volume (a.u.^3)      6454.6933
 PW_GRID| Grid span                                                    FULLSPACE
 PW_GRID|   Distribution                         Average         Max         Min
 PW_GRID|   G-Vectors                              535.9         630         490
 PW_GRID|   G-Rays                                  15.3          18          14
 PW_GRID|   Real Space Points                      535.9         700         420

 PW_GRID| Information for grid number                                          4
 PW_GRID| Number of the reference grid                                         1
 PW_GRID| Grid distributed over                                    80 processors
 PW_GRID| Real space group dimensions                                     8   10
 PW_GRID| the grid is blocked:                                                NO
 PW_GRID| Cutoff [a.u.]                                                      5.6
 PW_GRID| spherical cutoff:                                                   NO
 PW_GRID|   Bounds   1            -10       9                Points:          20
 PW_GRID|   Bounds   2            -10       9                Points:          20
 PW_GRID|   Bounds   3            -10       9                Points:          20
 PW_GRID| Volume element (a.u.^3)  0.8068         Volume (a.u.^3)      6454.6933
 PW_GRID| Grid span                                                    FULLSPACE
 PW_GRID|   Distribution                         Average         Max         Min
 PW_GRID|   G-Vectors                              100.0         120          80
 PW_GRID|   G-Rays                                   5.0           6           4
 PW_GRID|   Real Space Points                      100.0         120          80

 POISSON| Solver                                                        PERIODIC
 POISSON| Periodicity                                                        XYZ

 RS_GRID| Information for grid number                                          1
 RS_GRID|   Bounds   1            -52      52                Points:         105
 RS_GRID|   Bounds   2            -52      52                Points:         105
 RS_GRID|   Bounds   3            -52      52                Points:         105
 RS_GRID| Real space distribution over                                  4 groups
 RS_GRID| Real space distribution along direction                              1
 RS_GRID| Border size                                                         19
 RS_GRID| Real space distribution over                                  4 groups
 RS_GRID| Real space distribution along direction                              2
 RS_GRID| Border size                                                         19
 RS_GRID| Real space distribution over                                  5 groups
 RS_GRID| Real space distribution along direction                              3
 RS_GRID| Border size                                                         19
 RS_GRID|   Distribution                         Average         Max         Min
 RS_GRID|   Planes                                  64.2          65          64
 RS_GRID|   Distribution                         Average         Max         Min
 RS_GRID|   Planes                                  64.2          65          64
 RS_GRID|   Distribution                         Average         Max         Min
 RS_GRID|   Planes                                  59.0          59          59

 RS_GRID| Information for grid number                                          2
 RS_GRID|   Bounds   1            -30      29                Points:          60
 RS_GRID|   Bounds   2            -30      29                Points:          60
 RS_GRID|   Bounds   3            -30      29                Points:          60
 RS_GRID| Real space fully replicated
 RS_GRID| Group size                                                           1

 RS_GRID| Information for grid number                                          3
 RS_GRID|   Bounds   1            -17      17                Points:          35
 RS_GRID|   Bounds   2            -17      17                Points:          35
 RS_GRID|   Bounds   3            -17      17                Points:          35
 RS_GRID| Real space fully replicated
 RS_GRID| Group size                                                           1

 RS_GRID| Information for grid number                                          4
 RS_GRID|   Bounds   1            -10       9                Points:          20
 RS_GRID|   Bounds   2            -10       9                Points:          20
 RS_GRID|   Bounds   3            -10       9                Points:          20
 RS_GRID| Real space fully replicated
 RS_GRID| Group size                                                           1

 ------------------------------ Linear scaling SCF -----------------------------
 eps_scf:                                                              0.100E-07
 eps_filter:                                                           0.100E-07
 mixing_fraction:                                                      0.450E+00
 max_scf:                                                                      1
 fixed chemical potential (mu)                                                 T
 has unit metric:                                                              F
 Computing inv(S):                                                             T
 Computing sqrt(S):                                                            T
 Computing S preconditioner                                                    T
 S sqrt method:                                                     NEWTONSCHULZ
 S sqrt order:                                                                 3
 Extrapolation order:                                                          4
 Use single precision matrices                                                 F
 S preconditioner type                                                 MOLECULAR
 Polarized Atomic Orbitals (PAO)                                               F
 Purification method                                              sign iteration
 Sign method:                                                      newton schulz
 Sign order:                                                                   2
 Symmetric sign calculation:                                                   F
 Cluster type                                                          MOLECULAR
 Computing Chebyshev                                                       FALSE
 Using PAO                                                                     F
 -------------------------------------------------------------------------------

 
     Lanczos converged:  T threshold:   0.100E-02
     Est. extremal eigenvalues:    0.192E+01   0.330E+00
     Est. condition number :    0.582E+01
 
 Order=           3
     NS sqrt iter    1 0.03125000   0.511E+00       0.145        0.005
     NS sqrt iter    2 0.03125000   0.198E+00       0.030        0.023
     NS sqrt iter    3 0.03125000   0.121E-01       0.005        0.146
     NS sqrt iter    4 0.03125000   0.378E-05       0.004        0.119
     Symmetrizing Results
     Final NS sqrt iter    4 0.03125000   0.235E-10

 
     Lanczos converged:  T threshold:   0.100E-02
     Est. extremal eigenvalues:    0.164E+01   0.622E+00
     Est. condition number :    0.264E+01
 
 Order=           3
     NS sqrt iter    1 1.00000000   0.260E+00       0.006       57.094
     NS sqrt iter    2 1.00000000   0.206E-01       0.014       49.698
     NS sqrt iter    3 1.00000000   0.471E-04       0.034       14.506
     Symmetrizing Results
     Final NS sqrt iter    3 1.00000000   0.115E-08



 Guess for atomic kind: O

 Electronic structure
    Total number of core electrons                                          2.00
    Total number of valence electrons                                       6.00
    Total number of electrons                                               8.00
    Multiplicity                                                   not specified
    S   [  2.00] 2.00
    P      4.00
 

 *******************************************************************************
                  Iteration          Convergence                     Energy [au]
 *******************************************************************************
                          1         0.00000                     -15.707921728522

 Energy components [Hartree]           Total Energy ::          -15.707921728522
                                        Band Energy ::           -2.136736949465
                                     Kinetic Energy ::           11.912575941791
                                   Potential Energy ::          -27.620497670312
                                      Virial (-V/T) ::            2.318599923751
                                        Core Energy ::          -26.283592465485
                                          XC Energy ::           -3.178950412391
                                     Coulomb Energy ::           13.754621149354
                       Total Pseudopotential Energy ::          -38.230330262842
                       Local Pseudopotential Energy ::          -39.524789846979
                    Nonlocal Pseudopotential Energy ::            1.294459584137
                                        Confinement ::            0.341618555667

 Orbital energies  State     L     Occupation   Energy[a.u.]          Energy[eV]

                       1     0          2.000      -0.709155          -19.297083
 
                       1     1          4.000      -0.179607           -4.887351
 

 Total Electron Density at R=0:                                         0.000031

 Guess for atomic kind: H

 Electronic structure
    Total number of core electrons                                          0.00
    Total number of valence electrons                                       1.00
    Total number of electrons                                               1.00
    Multiplicity                                                   not specified
    S      1.00
 

 *******************************************************************************
                  Iteration          Convergence                     Energy [au]
 *******************************************************************************
                          1         0.00000                      -0.372474116344

 Energy components [Hartree]           Total Energy ::           -0.372474116344
                                        Band Energy ::           -0.184689713228
                                     Kinetic Energy ::            0.795946116619
                                   Potential Energy ::           -1.168420232963
                                      Virial (-V/T) ::            1.467963984706
                                        Core Energy ::           -0.452545141516
                                          XC Energy ::           -0.314416247311
                                     Coulomb Energy ::            0.394487272483
                       Total Pseudopotential Energy ::           -1.259976600556
                       Local Pseudopotential Energy ::           -1.259976600556
                    Nonlocal Pseudopotential Energy ::            0.000000000000
                                        Confinement ::            0.114853424211

 Orbital energies  State     L     Occupation   Energy[a.u.]          Energy[eV]

                       1     0          1.000      -0.184690           -5.025663
 

 Total Electron Density at R=0:                                         0.476934
 Re-scaling the density matrix to get the right number of electrons
                  # Electrons              Trace(P)               Scaling factor
                          256               256.000                        1.000
 Energy with the initial guess:      -542.166207396

 
     NS sign iter    1 1.00000000   0.123E+02       0.003      118.596
     NS sign iter    2 1.00000000   0.569E+01       0.003      120.807
     NS sign iter    3 1.00000000   0.274E+01       0.003      121.768
     NS sign iter    4 1.00000000   0.138E+01       0.003      123.955
     NS sign iter    5 1.00000000   0.655E+00       0.003      122.091
     NS sign iter    6 1.00000000   0.245E+00       0.003      122.701
     NS sign iter    7 1.00000000   0.605E-01       0.003      122.374
     NS sign iter    8 1.00000000   0.662E-02       0.003      121.931
     NS sign iter    9 1.00000000   0.225E-03       0.070        5.034
     NS sign iter   10 1.00000000   0.492E-06       0.003       97.945
     Final NS sign iter  10 1.00000000   0.231E-09

 Deviation from idempotency:       0.000000004426
 Energy Tr(DK)     -56.329022057443
 Density matrix:  iter, mu, trace error:  1   0.070000000     0.000000004
 
 SCF     1      -546.297608908      -546.297608908    0.205839
 
 SCF not converged! 

 !-----------------------------------------------------------------------------!
                           Hirshfeld Charges

  #Atom  Element  Kind  Ref Charge     Population                    Net charge
      1       O      1       6.000          7.342                        -1.342
      2       H      2       1.000          0.330                         0.670
      3       H      2       1.000          0.327                         0.673
      4       O      1       6.000          7.350                        -1.350
      5       H      2       1.000          0.328                         0.672
      6       H      2       1.000          0.330                         0.670
      7       O      1       6.000          7.340                        -1.340
      8       H      2       1.000          0.328                         0.672
      9       H      2       1.000          0.328                         0.672
     10       O      1       6.000          7.343                        -1.343
     11       H      2       1.000          0.328                         0.672
     12       H      2       1.000          0.328                         0.672
     13       O      1       6.000          7.331                        -1.331
     14       H      2       1.000          0.330                         0.670
     15       H      2       1.000          0.330                         0.670
     16       O      1       6.000          7.351                        -1.351
     17       H      2       1.000          0.328                         0.672
     18       H      2       1.000          0.327                         0.673
     19       O      1       6.000          7.327                        -1.327
     20       H      2       1.000          0.327                         0.673
     21       H      2       1.000          0.329                         0.671
     22       O      1       6.000          7.337                        -1.337
     23       H      2       1.000          0.329                         0.671
     24       H      2       1.000          0.328                         0.672
     25       O      1       6.000          7.356                        -1.356
     26       H      2       1.000          0.329                         0.671
     27       H      2       1.000          0.329                         0.671
     28       O      1       6.000          7.346                        -1.346
     29       H      2       1.000          0.328                         0.672
     30       H      2       1.000          0.329                         0.671
     31       O      1       6.000          7.343                        -1.343
     32       H      2       1.000          0.330                         0.670
     33       H      2       1.000          0.329                         0.671
     34       O      1       6.000          7.376                        -1.376
     35       H      2       1.000          0.328                         0.672
     36       H      2       1.000          0.328                         0.672
     37       O      1       6.000          7.344                        -1.344
     38       H      2       1.000          0.331                         0.669
     39       H      2       1.000          0.328                         0.672
     40       O      1       6.000          7.344                        -1.344
     41       H      2       1.000          0.327                         0.673
     42       H      2       1.000          0.327                         0.673
     43       O      1       6.000          7.355                        -1.355
     44       H      2       1.000          0.329                         0.671
     45       H      2       1.000          0.330                         0.670
     46       O      1       6.000          7.328                        -1.328
     47       H      2       1.000          0.327                         0.673
     48       H      2       1.000          0.330                         0.670
     49       O      1       6.000          7.328                        -1.328
     50       H      2       1.000          0.328                         0.672
     51       H      2       1.000          0.329                         0.671
     52       O      1       6.000          7.361                        -1.361
     53       H      2       1.000          0.329                         0.671
     54       H      2       1.000          0.329                         0.671
     55       O      1       6.000          7.340                        -1.340
     56       H      2       1.000          0.328                         0.672
     57       H      2       1.000          0.329                         0.671
     58       O      1       6.000          7.341                        -1.341
     59       H      2       1.000          0.329                         0.671
     60       H      2       1.000          0.330                         0.670
     61       O      1       6.000          7.336                        -1.336
     62       H      2       1.000          0.327                         0.673
     63       H      2       1.000          0.329                         0.671
     64       O      1       6.000          7.352                        -1.352
     65       H      2       1.000          0.329                         0.671
     66       H      2       1.000          0.328                         0.672
     67       O      1       6.000          7.340                        -1.340
     68       H      2       1.000          0.329                         0.671
     69       H      2       1.000          0.327                         0.673
     70       O      1       6.000          7.345                        -1.345
     71       H      2       1.000          0.328                         0.672
     72       H      2       1.000          0.329                         0.671
     73       O      1       6.000          7.339                        -1.339
     74       H      2       1.000          0.329                         0.671
     75       H      2       1.000          0.328                         0.672
     76       O      1       6.000          7.340                        -1.340
     77       H      2       1.000          0.328                         0.672
     78       H      2       1.000          0.329                         0.671
     79       O      1       6.000          7.343                        -1.343
     80       H      2       1.000          0.327                         0.673
     81       H      2       1.000          0.329                         0.671
     82       O      1       6.000          7.336                        -1.336
     83       H      2       1.000          0.330                         0.670
     84       H      2       1.000          0.329                         0.671
     85       O      1       6.000          7.323                        -1.323
     86       H      2       1.000          0.327                         0.673
     87       H      2       1.000          0.330                         0.670
     88       O      1       6.000          7.347                        -1.347
     89       H      2       1.000          0.327                         0.673
     90       H      2       1.000          0.328                         0.672
     91       O      1       6.000          7.340                        -1.340
     92       H      2       1.000          0.328                         0.672
     93       H      2       1.000          0.330                         0.670
     94       O      1       6.000          7.349                        -1.349
     95       H      2       1.000          0.328                         0.672
     96       H      2       1.000          0.328                         0.672

  Total Charge                                                            0.003
 !-----------------------------------------------------------------------------!

 ENERGY| Total FORCE_EVAL ( QS ) energy (a.u.):             -546.297608908226152


 -------------------------------------------------------------------------------
 -                                                                             -
 -                                DBCSR STATISTICS                             -
 -                                                                             -
 -------------------------------------------------------------------------------
 COUNTER                                    TOTAL       BLAS       SMM       ACC
 flops     6 x     6 x     6            536455872       0.0%    100.0%      0.0%
 flops inhomo. stacks                           0       0.0%      0.0%      0.0%
 flops total                       536.455872E+06       0.0%    100.0%      0.0%
 flops max/rank                     10.495872E+06       0.0%    100.0%      0.0%
 matmuls inhomo. stacks                         0       0.0%      0.0%      0.0%
 matmuls total                            1241796       0.0%    100.0%      0.0%
 number of processed stacks                 64431       0.0%    100.0%      0.0%
 average stack size                                     0.0      19.3       0.0
 marketing flops                   934.280320E+06
 -------------------------------------------------------------------------------
 # multiplications                             66
 max memory usage/rank             197.074944E+06
 # max total images/rank                        5
 # max 3D layers                                1
 # MPI messages exchanged                  179520
 MPI messages size (bytes):
  total size                       289.935360E+06
  min size                           0.000000E+00
  max size                           5.760000E+03
  average size                       1.615059E+03
 MPI breakdown and total messages size (bytes):
             size <=      128               49368                        0
       128 < size <=     8192              130152                289935360
      8192 < size <=    32768                   0                        0
     32768 < size <=   131072                   0                        0
    131072 < size <=  4194304                   0                        0
   4194304 < size <= 16777216                   0                        0
  16777216 < size                               0                        0
 -------------------------------------------------------------------------------

 *** WARNING in dbcsr_mm.F:297 :: Using a non-square number of MPI ranks ***
 *** might lead to poor performance. Used ranks: 80 Suggested: 81 169    ***

 -------------------------------------------------------------------------------
 -                                                                             -
 -                      DBCSR MESSAGE PASSING PERFORMANCE                      -
 -                                                                             -
 -------------------------------------------------------------------------------
 ROUTINE             CALLS      AVE VOLUME [Bytes]
 MP_Bcast                2                     12.
 MP_Allreduce          419                     29.
 MP_Alltoall           191                   8034.
 MP_ISend             4894                    784.
 MP_IRecv             4896                    794.
 -------------------------------------------------------------------------------
 
 MEMORY| Estimated peak process memory [MiB]                                 193

 -------------------------------------------------------------------------------
 ----                             MULTIGRID INFO                            ----
 -------------------------------------------------------------------------------
 count for grid        1:          70372          cutoff [a.u.]          150.00
 count for grid        2:          32470          cutoff [a.u.]           50.00
 count for grid        3:          34740          cutoff [a.u.]           16.67
 count for grid        4:          18985          cutoff [a.u.]            5.56
 total gridlevel count  :         156567

 -------------------------------------------------------------------------------
 -                                                                             -
 -                         MESSAGE PASSING PERFORMANCE                         -
 -                                                                             -
 -------------------------------------------------------------------------------

 ROUTINE             CALLS      AVE VOLUME [Bytes]
 MP_Group                4
 MP_Bcast              112                2259675.
 MP_Allreduce          306                    749.
 MP_Sync                12
 MP_Alltoall            46                 883818.
 MP_ISendRecv          948                   9867.
 MP_Wait              1166
 MP_ISend              310                  43432.
 MP_IRecv              310                  43350.
 -------------------------------------------------------------------------------


 -------------------------------------------------------------------------------
 -                                                                             -
 -                           R E F E R E N C E S                               -
 -                                                                             -
 -------------------------------------------------------------------------------
 
 CP2K version 8.0 (Development Version), the CP2K developers group (2019).
 CP2K is freely available from https://www.cp2k.org/ .

 Schuett, Ole; Messmer, Peter; Hutter, Juerg; VandeVondele, Joost. 
 Electronic Structure Calculations on Graphics Processing Units, John
 Wiley & Sons, Ltd, 173-190 (2016). 
 GPU-Accelerated Sparse Matrix-Matrix Multiplication for
 Linear Scaling Density Functional Theory.
 https://doi.org/10.1002/9781118670712.ch8

 Borstnik, U; VandeVondele, J; Weber, V; Hutter, J. 
 PARALLEL COMPUTING, 40 (5-6), 47-58 (2014). 
 Sparse matrix multiplication: The distributed block-compressed sparse
 row library.
 https://doi.org/10.1016/j.parco.2014.03.012

 Hutter, J; Iannuzzi, M; Schiffmann, F; VandeVondele, J. 
 WIREs Comput Mol Sci., 4 (1), 15-25 (2014). 
 CP2K: atomistic simulations of condensed matter systems.
 https://doi.org/10.1002/wcms.1159

 Marek, A; Blum, V; Johanni, R; Havu, V; Lang, B; Auckenthaler, T;
 Heinecke, A; Bungartz, H; Lederer, H. 
 Journal of Physics: Condensed Matter, 26 (21), (2014). 
 The ELPA library: scalable parallel eigenvalue solutions for
 electronic structure
 theory and computational science.
 https://doi.org/10.1088/0953-8984/26/21/213201

 VandeVondele, J; Borstnik, U; Hutter, J. 
 JOURNAL OF CHEMICAL THEORY AND COMPUTATION, 8 (10), 3565-3573 (2012). 
 Linear Scaling Self-Consistent Field Calculations with Millions of Atoms
 in the Condensed Phase.
 https://doi.org/10.1021/ct200897x

 VandeVondele, J; Hutter, J. 
 JOURNAL OF CHEMICAL PHYSICS, 127 (11), 114105 (2007). 
 Gaussian basis sets for accurate calculations on molecular systems in
 gas and condensed phases.
 https://doi.org/10.1063/1.2770708

 Krack, M. 
 THEORETICAL CHEMISTRY ACCOUNTS, 114 (1-3), 145-152 (2005). 
 Pseudopotentials for H to Kr optimized for gradient-corrected
 exchange-correlation functionals.
 https://doi.org/10.1007/s00214-005-0655-y

 VandeVondele, J; Krack, M; Mohamed, F; Parrinello, M; Chassaing, T;
 Hutter, J. COMPUTER PHYSICS COMMUNICATIONS, 167 (2), 103-128 (2005). 
 QUICKSTEP: Fast and accurate density functional calculations using a
 mixed Gaussian and plane waves approach.
 https://doi.org/10.1016/j.cpc.2004.12.014

 Frigo, M; Johnson, SG. 
 PROCEEDINGS OF THE IEEE, 93 (2), 216-231 (2005). 
 The design and implementation of FFTW3.
 https://doi.org/10.1109/JPROC.2004.840301

 Hartwigsen, C; Goedecker, S; Hutter, J. 
 PHYSICAL REVIEW B, 58 (7), 3641-3662 (1998). 
 Relativistic separable dual-space Gaussian pseudopotentials from H to Rn.
 https://doi.org/10.1103/PhysRevB.58.3641

 Lippert, G; Hutter, J; Parrinello, M. 
 MOLECULAR PHYSICS, 92 (3), 477-487 (1997). 
 A hybrid Gaussian and plane wave density functional scheme.
 https://doi.org/10.1080/002689797170220

 Goedecker, S; Teter, M; Hutter, J. 
 PHYSICAL REVIEW B, 54 (3), 1703-1710 (1996). 
 Separable dual-space Gaussian pseudopotentials.
 https://doi.org/10.1103/PhysRevB.54.1703


 -------------------------------------------------------------------------------
 -                                                                             -
 -                                T I M I N G                                  -
 -                                                                             -
 -------------------------------------------------------------------------------
 SUBROUTINE                       CALLS  ASD         SELF TIME        TOTAL TIME
                                MAXIMUM       AVERAGE  MAXIMUM  AVERAGE  MAXIMUM
 CP2K                                 1  1.0    0.014    0.028    0.774    0.778
 qs_energies                          1  2.0    0.000    0.000    0.656    0.657
 ls_scf                               1  3.0    0.000    0.000    0.621    0.621
 ls_scf_init_scf                      1  4.0    0.000    0.000    0.379    0.379
 dbcsr_multiply_generic              66  7.5    0.003    0.003    0.352    0.365
 ls_scf_init_matrix_S                 1  5.0    0.000    0.000    0.280    0.282
 matrix_sqrt_Newton_Schulz            2  6.5    0.001    0.001    0.272    0.272
 ls_scf_main                          1  4.0    0.000    0.000    0.207    0.208
 compute_matrix_preconditioner        1  6.0    0.000    0.000    0.190    0.190
 multiply_cannon                     66  8.5    0.006    0.006    0.122    0.170
 mp_sum_l                           319  8.1    0.114    0.158    0.114    0.158
 mp_waitall_1                      8376 11.7    0.072    0.146    0.072    0.146
 make_m2s                           132  8.5    0.002    0.009    0.119    0.142
 make_images                        132  9.5    0.004    0.004    0.117    0.139
 dbcsr_multiply_generic_mpsum_f      48  8.8    0.000    0.000    0.090    0.134
 multiply_cannon_loop                66  9.5    0.008    0.009    0.085    0.125
 make_images_sizes                  132 10.5    0.000    0.000    0.099    0.124
 mp_alltoall_i44                    132 11.5    0.099    0.124    0.099    0.124
 density_matrix_sign                  1  5.0    0.000    0.000    0.111    0.111
 density_matrix_sign_fixed_mu         1  6.0    0.000    0.000    0.110    0.110
 rs_pw_transfer                      19 10.3    0.000    0.000    0.101    0.108
 matrix_sign_Newton_Schulz            1  7.0    0.000    0.002    0.103    0.104
 multiply_cannon_metrocomm3        1320 10.5    0.004    0.004    0.051    0.099
 ls_scf_initial_guess                 1  5.0    0.000    0.000    0.098    0.099
 ls_scf_qs_atomic_guess               1  6.0    0.000    0.000    0.098    0.099
 qs_rho_update_rho                    2  6.5    0.000    0.000    0.096    0.096
 calculate_rho_elec                   2  7.5    0.025    0.029    0.096    0.096
 ls_scf_dm_to_ks                      1  5.0    0.000    0.000    0.088    0.088
 qs_ks_update_qs_env                  2  6.5    0.000    0.000    0.083    0.083
 rebuild_ks_matrix                    2  7.5    0.000    0.000    0.083    0.083
 qs_ks_build_kohn_sham_matrix         2  8.5    0.000    0.001    0.083    0.083
 sum_up_and_integrate                 2  9.5    0.000    0.000    0.072    0.072
 integrate_v_rspace_low               2 10.5    0.021    0.026    0.071    0.072
 density_rs2pw                        2  8.5    0.000    0.000    0.046    0.052
 rs_pw_transfer_RS2PW_150             4  9.0    0.008    0.009    0.043    0.051
 multiply_cannon_metrocomm1        1320 10.5    0.001    0.001    0.009    0.049
 rs_grid_zero                        13  9.2    0.047    0.048    0.047    0.048
 make_images_data                   132 10.5    0.001    0.002    0.007    0.047
 mp_sum_d                           507  2.7    0.030    0.047    0.030    0.047
 potential_pw2rs                      2 11.5    0.000    0.000    0.045    0.045
 hybrid_alltoall_any                134 11.4    0.001    0.001    0.005    0.045
 qs_init_subsys                       1  2.0    0.001    0.001    0.042    0.043
 create_qs_kind_set                   1  2.0    0.000    0.000    0.040    0.042
 read_qs_kind                         2  3.0    0.009    0.014    0.040    0.042
 qs_env_setup                         1  3.0    0.000    0.000    0.041    0.042
 qs_env_rebuild_pw_env                2  3.5    0.000    0.000    0.041    0.041
 pw_env_rebuild                       1  5.0    0.001    0.002    0.041    0.041
 rs_pw_transfer_PW2RS_150             3 11.7    0.005    0.006    0.037    0.040
 mp_isend_dv                       2658 11.5    0.004    0.040    0.004    0.040
 mp_isend_dm3                        42 11.1    0.029    0.037    0.029    0.037
 mp_waitany                         182 11.1    0.021    0.036    0.021    0.036
 qs_energies_init_hamiltonians        1  3.0    0.000    0.000    0.035    0.036
 ls_scf_post                          1  4.0    0.000    0.001    0.034    0.035
 pw_transfer                         25 10.5    0.001    0.001    0.031    0.033
 parser_read_line                  2946  4.0    0.001    0.001    0.031    0.032
 multiply_cannon_metrocomm4        1254 10.5    0.004    0.029    0.007    0.032
 fft_wrap_pw1pw2                     21 11.5    0.000    0.000    0.030    0.032
 qs_env_update_s_mstruct              1  4.0    0.000    0.000    0.029    0.032
 parser_read_line_low                 5  5.0    0.003    0.007    0.030    0.031
 mp_allgather_i34                    66  9.5    0.026    0.030    0.026    0.030
 fft3d_ps                            21 13.5    0.005    0.006    0.027    0.030
 broadcast_input_information          5  6.0    0.000    0.000    0.026    0.028
 dbcsr_frobenius_norm                42  7.8    0.000    0.000    0.015    0.028
 write_mo_free_results                1  5.0    0.000    0.001    0.027    0.028
 calculate_rho_core                   1  5.0    0.000    0.001    0.024    0.027
 pw_grid_setup                        4  6.0    0.000    0.001    0.020    0.023
 calculate_norms                   2320 10.6    0.002    0.023    0.002    0.023
 pw_grid_setup_internal               4  7.0    0.000    0.003    0.020    0.023
 mp_alltoall_i22                      9  9.0    0.022    0.022    0.022    0.022
 dbcsr_new_transposed                 4  7.5    0.000    0.021    0.022    0.022
 dbcsr_redistribute                   4  8.5    0.000    0.000    0.022    0.022
 fft_wrap_pw1pw2_150                  9 11.8    0.001    0.002    0.018    0.021
 dbcsr_mm_multrec_init               66  9.5    0.000    0.000    0.001    0.019
 dbcsr_mm_csr_init                   66 10.5    0.001    0.018    0.001    0.018
 mp_bcast_am                          5  7.0    0.017    0.018    0.018    0.018
 mp_bcast_i                         106  2.9    0.013    0.015    0.013    0.015
 apply_matrix_preconditioner          4  5.5    0.000    0.000    0.014    0.015
 mp_alltoall_z22v                    21 15.5    0.012    0.015    0.012    0.015
 mp_comm_dup                          8  6.5    0.014    0.014    0.014    0.014
 calculate_hirshfeld_normalizat       1  6.0    0.001    0.001    0.014    0.014
 hirshfeld_integration                1  6.0    0.001    0.001    0.013    0.013
 rs_distribute_matrix                 4 10.0    0.000    0.001    0.006    0.012
 mp_bcast_av                        449  1.0    0.004    0.005    0.012    0.012
 mp_alltoall_d11v                    31  9.5    0.006    0.012    0.006    0.012
 rs_pw_transfer_PW2RS_50              2 13.5    0.002    0.003    0.008    0.011
 mp_maxloc_dv                       899  1.0    0.010    0.010    0.010    0.010
 dbcsr_create_new                  1092 10.2    0.003    0.008    0.004    0.010
 mp_sum_im                            5  6.8    0.009    0.009    0.009    0.009
 mp_max_i                           377  1.6    0.008    0.009    0.008    0.009
 arnoldi_extremal                     2  7.5    0.000    0.000    0.008    0.008
 arnoldi_normal_ev                    2  8.5    0.000    0.000    0.008    0.008
 rs_pw_transfer_RS2PW_50              2 10.5    0.002    0.003    0.006    0.008
 build_core_hamiltonian_matrix        1  4.0    0.000    0.000    0.005    0.008
 write_qs_kind_set                    1  3.0    0.000    0.007    0.000    0.007
 yz_to_x                              5 14.0    0.000    0.001    0.006    0.007
 ls_scf_store_result                  1  5.0    0.000    0.000    0.007    0.007
 qs_vxc_create                        2  9.5    0.000    0.001    0.004    0.007
 x_to_yz                              4 13.5    0.000    0.001    0.005    0.007
 xc_vxc_pw_create                     2 10.5    0.000    0.001    0.004    0.007
 setup_buffer_matrices              132  9.5    0.001    0.001    0.002    0.007
 fft_wrap_pw1pw2_50                   4 13.0    0.000    0.000    0.006    0.006
 calculate_atomic_block_dm            1  7.0    0.001    0.001    0.006    0.006
 get_fft_scratch                     22 14.0    0.003    0.005    0.004    0.005
 xz_to_yz                             6 13.5    0.001    0.001    0.005    0.005
 dbcsr_dot_sd                         5  9.2    0.000    0.000    0.005    0.005
 build_subspace                       2  9.5    0.000    0.000    0.005    0.005
 dbcsr_sym_m_v_mult                  37 10.1    0.000    0.001    0.005    0.005
 mp_sum_dv                          183 11.5    0.003    0.005    0.003    0.005
 calculate_atom                       2  8.0    0.000    0.000    0.000    0.005
 calculate_atom_restricted            2  9.0    0.000    0.005    0.000    0.005
 multiply_cannon_metrocomm2         990 10.5    0.003    0.003    0.005    0.005
 mp_alltoall_z11v                     8 16.0    0.004    0.005    0.004    0.005
 mp_sum_i                             8  8.4    0.004    0.005    0.004    0.005
 mp_comm_free                        16  2.5    0.000    0.005    0.000    0.005
 mp_isendrecv_dv                    948 13.0    0.001    0.004    0.001    0.004
 multiply_cannon_multrec           1320 10.5    0.003    0.004    0.003    0.004
 qs_create_task_list                  1  5.0    0.000    0.000    0.004    0.004
 generate_qs_task_list                1  6.0    0.001    0.001    0.004    0.004
 dbcsr_data_release                3895 10.8    0.001    0.004    0.001    0.004
 build_core_ppl                       1  5.0    0.002    0.004    0.002    0.004
 dbcsr_special_finalize             396 10.5    0.001    0.002    0.003    0.004
 fft3d_s                              1  2.0    0.000    0.000    0.003    0.004
 yz_to_xz                             6 16.5    0.000    0.000    0.003    0.004
 pw_grid_sort                         4  8.0    0.001    0.002    0.003    0.004
 distribute_tasks                     1  7.0    0.000    0.000    0.003    0.004
 fft_wrap_pw1pw2_10                   4 13.0    0.000    0.000    0.003    0.004
 fft_wrap_pw1pw2_20                   4 13.0    0.000    0.000    0.003    0.003
 dbcsr_finalize                     159  8.5    0.001    0.001    0.003    0.003
 topology_control                     1  2.0    0.000    0.000    0.002    0.003
 rs_pw_transfer_RS2PW_20              2 10.5    0.001    0.001    0.003    0.003
 rs_pw_transfer_PW2RS_20              2 13.5    0.001    0.001    0.002    0.003
 mp_max_l                            22  1.8    0.002    0.003    0.002    0.003
 arnoldi_init                         2  9.5    0.000    0.000    0.002    0.003
 connectivity_control                 1  3.0    0.000    0.000    0.002    0.003
 matrix_qs_to_ls                      2  5.5    0.000    0.000    0.002    0.002
 matrix_cluster                       2  6.5    0.000    0.000    0.002    0.002
 mp_bcast_b                          38  9.9    0.002    0.002    0.002    0.002
 mp_sum_iv                           62  9.5    0.002    0.002    0.002    0.002
 mp_irecv_dv                       2594 11.5    0.001    0.002    0.001    0.002
 dbcsr_merge_all                    128  9.8    0.001    0.001    0.002    0.002
 sort_shells                          4  9.0    0.002    0.002    0.002    0.002
 get_current_loads                    8  8.5    0.000    0.000    0.002    0.002
 mp_irecv_dm3                        42 11.1    0.000    0.002    0.000    0.002
 pw_grid_distribute                   4  8.0    0.001    0.001    0.002    0.002
 dbcsr_copy                         247  9.2    0.001    0.001    0.002    0.002
 pw_grid_remap                        4  8.0    0.000    0.000    0.002    0.002
 xc_rho_set_and_dset_create           2 11.5    0.000    0.000    0.001    0.002
 mp_sync                             12 13.0    0.001    0.002    0.001    0.002
 dbcsr_col_vec_to_rep_row            37 11.1    0.000    0.000    0.002    0.002
 external_control                     2  5.0    0.000    0.001    0.001    0.002
 cube_transpose_2                     6 13.5    0.000    0.000    0.001    0.002
 mp_sum_im3                           4  9.0    0.001    0.002    0.001    0.002
 xc_functional_eval                   2 12.5    0.001    0.002    0.001    0.002
 build_qs_neighbor_lists              1  4.0    0.000    0.000    0.001    0.002
 topology_generate_bond               1  4.0    0.000    0.000    0.001    0.002
 rs_grid_create_descriptor            4  6.0    0.000    0.000    0.001    0.002
 dbcsr_complete_redistribute          3  7.7    0.000    0.001    0.002    0.002
 mp_isend_iv                       2643 11.4    0.001    0.002    0.001    0.002
 mp_alltoall_l                        9  9.4    0.001    0.002    0.001    0.002
 dbcsr_merge_single_wm              330 11.5    0.001    0.001    0.002    0.002
 build_core_ppnl                      1  5.0    0.001    0.002    0.001    0.002
 write_qs_control                     1  3.0    0.000    0.002    0.000    0.002
 dbcsr_destroy                     1046  9.0    0.001    0.001    0.001    0.001
 dbcsr_desymmetrize_deep              2  7.5    0.000    0.000    0.001    0.001
 mp_bcast_dv                         37 12.1    0.001    0.001    0.001    0.001
 create_local_tasks                   1  8.0    0.000    0.000    0.001    0.001
 write_dft_control                    1  3.0    0.000    0.001    0.000    0.001
 pw_poisson_solve                     2  9.5    0.000    0.000    0.001    0.001
 dbcsr_data_new                    2304 10.8    0.001    0.001    0.001    0.001
 dbcsr_iterator_start               744 11.1    0.001    0.001    0.001    0.001
 pw_grid_assign                       4  8.0    0.001    0.001    0.001    0.001
 compute_max_radius                   1  6.0    0.001    0.001    0.001    0.001
 mp_bcast_iv                         12  6.6    0.001    0.001    0.001    0.001
 make_images_pack                   132 10.5    0.001    0.001    0.001    0.001
 dbcsr_make_index_exist            1092 11.2    0.001    0.001    0.001    0.001
 dbcsr_work_create                  534 10.0    0.001    0.001    0.001    0.001
 init_cube_info                       4  6.0    0.001    0.001    0.001    0.001
 mp_alltoall_l11v                     1  9.0    0.001    0.001    0.001    0.001
 cube_transpose_1                     6 16.5    0.000    0.000    0.000    0.001
 dbcsr_rep_row_to_rep_col_vec        37 11.1    0.000    0.000    0.001    0.001
 rs_grid_create                       5  6.2    0.001    0.001    0.001    0.001
 topology_generate_bond_3             1  5.0    0.000    0.000    0.000    0.001
 mp_cart_sub                          5 13.0    0.001    0.001    0.001    0.001
 build_fist_neighbor_lists            1  6.0    0.000    0.000    0.000    0.001
 pw_copy                             16 11.9    0.001    0.001    0.001    0.001
 rs_pw_transfer_PW2RS_10              2 13.5    0.000    0.000    0.001    0.001
 pw_gather_p                         11 12.7    0.001    0.001    0.001    0.001
 mp_sum_lv                            7  5.4    0.001    0.001    0.001    0.001
 build_neighbor_lists                 1  7.0    0.000    0.001    0.000    0.001
 mp_cart_create                       5  9.2    0.001    0.001    0.001    0.001
 rs_pw_transfer_RS2PW_10              2 10.5    0.000    0.000    0.001    0.001
 dbcsr_iterator_stop                744 11.1    0.001    0.001    0.001    0.001
 build_overlap_matrix_low             1  5.0    0.001    0.001    0.001    0.001
 mp_irecv_iv                       2625 11.4    0.001    0.001    0.001    0.001
 matrix_ls_to_qs                      1  6.0    0.000    0.000    0.001    0.001
 dbcsr_add_on_diag                   41  7.8    0.000    0.000    0.001    0.001
 build_neighbor_lists_sac_ppl         1  5.0    0.001    0.001    0.001    0.001
 build_kinetic_matrix_low             1  5.0    0.001    0.001    0.001    0.001
 restraint_control                    1  2.0    0.000    0.000    0.001    0.001
 matrix_decluster                     1  7.0    0.000    0.000    0.001    0.001
 dbcsr_make_untransposed_blocks      66  8.5    0.000    0.001    0.001    0.001
 lgrid_allocate_grid                  1  9.0    0.000    0.001    0.000    0.001
 dbcsr_work_destroy_all             534 11.0    0.001    0.001    0.001    0.001
 topology_generate_bond_6             1  5.0    0.001    0.001    0.001    0.001
 load_balance_replicated              1  8.0    0.000    0.000    0.001    0.001
 pw_integral_ab                       2 10.5    0.000    0.000    0.000    0.001
 dbcsr_distribution_new             142  8.5    0.000    0.001    0.000    0.001
 mp_allgather_l                       9  9.4    0.000    0.001    0.000    0.001
 dbcsr_sym_m_v_mult_local_mm         37 11.1    0.000    0.001    0.000    0.001
 merge_index                        128 10.8    0.000    0.001    0.000    0.001
 calculate_ecore_overlap              1  4.0    0.000    0.000    0.000    0.001
 compute_evals                        2  9.5    0.000    0.001    0.000    0.001
 pw_scatter_p                        10 14.3    0.000    0.001    0.000    0.001
 dbcsr_sort_indices                 444 11.9    0.000    0.001    0.000    0.001
 topology_generate_bond_4             1  5.0    0.000    0.001    0.000    0.001
 quick_finalize                      76 11.2    0.000    0.000    0.000    0.001
 create_fast_col_vec_access          74 11.1    0.000    0.000    0.000    0.001
 Gram_Schmidt_ortho_d                35 10.1    0.000    0.000    0.000    0.001
 dbcsr_make_index_list              396  9.5    0.000    0.000    0.000    0.000
 dbcsr_scale_anytype                 31  9.0    0.000    0.000    0.000    0.000
 dbcsr_add_d                         12  7.5    0.000    0.000    0.000    0.000
 create_fast_row_vec_access          74 11.1    0.000    0.000    0.000    0.000
 dbcsr_add_anytype                   12  8.5    0.000    0.000    0.000    0.000
 create_fast_col_vec_access_d        74 12.1    0.000    0.000    0.000    0.000
 build_neighbor_lists_sap_ppnl        1  5.0    0.000    0.000    0.000    0.000
 pw_zero                              2  9.5    0.000    0.000    0.000    0.000
 coordinate_control                   1  3.0    0.000    0.000    0.000    0.000
 mp_alltoall_i11v                    23  9.1    0.000    0.000    0.000    0.000
 coordinate_control_READ_COORDI       1  4.0    0.000    0.000    0.000    0.000
 read_atoms_input                     1  5.0    0.000    0.000    0.000    0.000
 multiply_cannon_multrec_finali      66 11.5    0.000    0.000    0.000    0.000
 dbcsr_scale_d                       19  7.7    0.000    0.000    0.000    0.000
 pw_scale                             2  9.5    0.000    0.000    0.000    0.000
 create_fast_row_vec_access_d        74 12.1    0.000    0.000    0.000    0.000
 pw_grid_allocate                     4  8.0    0.000    0.000    0.000    0.000
 dbcsr_trace_sd                       2  6.5    0.000    0.000    0.000    0.000
 setup_rec_index_2d                 132  9.5    0.000    0.000    0.000    0.000
 dbcsr_trace_d                        2  7.5    0.000    0.000    0.000    0.000
 mp_sum_b                            14  7.4    0.000    0.000    0.000    0.000
 buffer_matrices_ensure_size        132  9.5    0.000    0.000    0.000    0.000
 dbcsr_mm_multrec_finalize           66 12.5    0.000    0.000    0.000    0.000
 pw_axpy                             10  9.5    0.000    0.000    0.000    0.000
 distribute_molecules_2d              1  4.0    0.000    0.000    0.000    0.000
 pw_pool_create_pw                   48 10.2    0.000    0.000    0.000    0.000
 dbcsr_switch_data_area             208 10.5    0.000    0.000    0.000    0.000
 qs_env_rebuild_rho                   1  5.0    0.000    0.000    0.000    0.000
 qs_rho_rebuild                       1  6.0    0.000    0.000    0.000    0.000
 mp_alltoall_i                        3 15.0    0.000    0.000    0.000    0.000
 evaluate_core_matrix_traces          2  7.5    0.000    0.000    0.000    0.000
 cp_dbcsr_alloc_block_from_nbl        5  5.4    0.000    0.000    0.000    0.000
 calculate_ptrace_kp                  4  8.5    0.000    0.000    0.000    0.000
 dbcsr_make_index_local_row         396  9.5    0.000    0.000    0.000    0.000
 dbcsr_set                          157 11.4    0.000    0.000    0.000    0.000
 build_neighbor_lists_sab_all         1  5.0    0.000    0.000    0.000    0.000
 pw_create                           21 10.7    0.000    0.000    0.000    0.000
 dbcsr_iterator_seek                744 12.1    0.000    0.000    0.000    0.000
 mp_bcast_im                          2 10.5    0.000    0.000    0.000    0.000
 dbcsr_sort_data                    388 12.2    0.000    0.000    0.000    0.000
 mp_isend_zv                        156 16.0    0.000    0.000    0.000    0.000
 init_qs_kind_set                     1  3.0    0.000    0.000    0.000    0.000
 init_qs_kind                         2  4.0    0.000    0.000    0.000    0.000
 mp_max_lv                            4  8.0    0.000    0.000    0.000    0.000
 build_neighbor_lists_sab_orb         1  5.0    0.000    0.000    0.000    0.000
 tree_to_linear_d                    55 11.2    0.000    0.000    0.000    0.000
 dbcsr_make_dbcsr_index             552 12.0    0.000    0.000    0.000    0.000
 dbcsr_finalize_lib                   1  2.0    0.000    0.000    0.000    0.000
 init_orb_basis_set                   2  5.0    0.000    0.000    0.000    0.000
 pw_poisson_rebuild                   2 10.5    0.000    0.000    0.000    0.000
 mp_max_r                             1  2.0    0.000    0.000    0.000    0.000
 init_cphi_and_sphi                   2  6.0    0.000    0.000    0.000    0.000
 dbcsr_gershgorin_norm                1  8.0    0.000    0.000    0.000    0.000
 topology_generate_bend               1  4.0    0.000    0.000    0.000    0.000
 atom_int_setup                       2  8.0    0.000    0.000    0.000    0.000
 mp_min_lv                            4  8.0    0.000    0.000    0.000    0.000
 DGKS_ortho_d                        35 10.1    0.000    0.000    0.000    0.000
 init_interaction_radii               1  3.0    0.000    0.000    0.000    0.000
 create_grid_atom                     2  8.0    0.000    0.000    0.000    0.000
 mp_cart_coords                     560 11.6    0.000    0.000    0.000    0.000
 mp_min_i                             3  6.0    0.000    0.000    0.000    0.000
 create_col_vec_from_matrix           4  9.5    0.000    0.000    0.000    0.000
 transpose_index_local                4  8.5    0.000    0.000    0.000    0.000
 dbcsr_zero                         157 12.4    0.000    0.000    0.000    0.000
 dbcsr_reserve_blocks                13  9.5    0.000    0.000    0.000    0.000
 dbcsr_filter_anytype                12  7.1    0.000    0.000    0.000    0.000
 fill_hash_tables                    66 11.5    0.000    0.000    0.000    0.000
 connectivity_control_check_ele       1  4.0    0.000    0.000    0.000    0.000
 dbcsr_get_data_size_used           138  9.8    0.000    0.000    0.000    0.000
 ls_scf_create                        1  2.0    0.000    0.000    0.000    0.000
 mp_sum_r                             1  2.0    0.000    0.000    0.000    0.000
 dbcsr_copy_into_existing             2  6.5    0.000    0.000    0.000    0.000
 mp_max_d                             1  1.0    0.000    0.000    0.000    0.000
 topology_generate_dihe               1  4.0    0.000    0.000    0.000    0.000
 topology_connectivity_pack           1  3.0    0.000    0.000    0.000    0.000
 build_neighbor_lists_sab_core        1  5.0    0.000    0.000    0.000    0.000
 dbcsr_reserve_all_blocks             8 10.5    0.000    0.000    0.000    0.000
 mp_cart_rank                       277 14.9    0.000    0.000    0.000    0.000
 multrec_filtering                   58 13.6    0.000    0.000    0.000    0.000
 dbcsr_mm_sched_init                 66 11.5    0.000    0.000    0.000    0.000
 mp_comm_compare                     24 13.7    0.000    0.000    0.000    0.000
 atom_ppint_setup                     2  8.0    0.000    0.000    0.000    0.000
 mp_environ_l                       127  5.0    0.000    0.000    0.000    0.000
 mp_rank_compare                     21 14.5    0.000    0.000    0.000    0.000
 ls_scf_init_read_write_input         1  3.0    0.000    0.000    0.000    0.000
 make_basic_spatial_distributio       1  5.0    0.000    0.000    0.000    0.000
 topology_generate_ub                 1  4.0    0.000    0.000    0.000    0.000
 mp_irecv_zv                        156 16.0    0.000    0.000    0.000    0.000
 calculate_atom_vxc_lda               2 10.0    0.000    0.000    0.000    0.000
 create_local_fixd_list               1  3.0    0.000    0.000    0.000    0.000
 topology_generate_bond_1             1  5.0    0.000    0.000    0.000    0.000
 distribute_molecules_1d              1  3.0    0.000    0.000    0.000    0.000
 pw_pool_give_back_pw                50 10.9    0.000    0.000    0.000    0.000
 create_replicated_col_vec_from       2  9.5    0.000    0.000    0.000    0.000
 topology_coordinate_pack             1  3.0    0.000    0.000    0.000    0.000
 topology_generate_onfo               1  4.0    0.000    0.000    0.000    0.000
 release_fast_vec_access            148 11.1    0.000    0.000    0.000    0.000
 create_replicated_row_vec_from       2  9.5    0.000    0.000    0.000    0.000
 ls_scf_release                       1  2.0    0.000    0.000    0.000    0.000
 mp_environ_c                        24 14.5    0.000    0.000    0.000    0.000
 topology_generate_molecule           1  4.0    0.000    0.000    0.000    0.000
 mp_sum_lm3                           1  2.0    0.000    0.000    0.000    0.000
 read_qs_section                      1  3.0    0.000    0.000    0.000    0.000
 topology_generate_bond_2             1  5.0    0.000    0.000    0.000    0.000
 scf_c_read_parameters                1  3.0    0.000    0.000    0.000    0.000
 check_generate_mol                   1  6.0    0.000    0.000    0.000    0.000
 matrix_ls_create                     1  5.0    0.000    0.000    0.000    0.000
 sort_neighbor_lists                  1  7.0    0.000    0.000    0.000    0.000
 dbcsr_mm_sched_finalize             66 13.5    0.000    0.000    0.000    0.000
 dbcsr_get_local_rows                66  8.5    0.000    0.000    0.000    0.000
 dbcsr_get_local_cols                66  8.5    0.000    0.000    0.000    0.000
 topology_generate_impr               1  4.0    0.000    0.000    0.000    0.000
 fist_neighbor_init                   1  8.0    0.000    0.000    0.000    0.000
 dbcsr_data_copy_aa2                 19 11.6    0.000    0.000    0.000    0.000
 topology_molecules_check             1  4.0    0.000    0.000    0.000    0.000
 scf_c_create                         1  3.0    0.000    0.000    0.000    0.000
 dbcsr_index_compact                  8  7.8    0.000    0.000    0.000    0.000
 topology_generate_bend_1             1  5.0    0.000    0.000    0.000    0.000
 dbcsr_mm_hostdrv_init               66 12.5    0.000    0.000    0.000    0.000
 qs_scf_post_ps_implicit              1  6.0    0.000    0.000    0.000    0.000
 sg_erf                               3  9.0    0.000    0.000    0.000    0.000
 topology_constraint_pack             1  3.0    0.000    0.000    0.000    0.000
 topology_set_atm_mass                1  4.0    0.000    0.000    0.000    0.000
 dbcsr_get_global_col_map            66  8.5    0.000    0.000    0.000    0.000
 qs_energies_properties               1  3.0    0.000    0.000    0.000    0.000
 dbcsr_get_global_row_map            66  8.5    0.000    0.000    0.000    0.000
 atom2d_build                         1  5.0    0.000    0.000    0.000    0.000
 dump_info_core_hamiltonian           1  5.0    0.000    0.000    0.000    0.000
 write_qs_particle_coordinates        1  3.0    0.000    0.000    0.000    0.000
 check_cp2k_input                     1  2.0    0.000    0.000    0.000    0.000
 read_tddfpt2_control                 1  3.0    0.000    0.000    0.000    0.000
 topology_connectivity_pack_10        1  4.0    0.000    0.000    0.000    0.000
 write_particle_distances             1  3.0    0.000    0.000    0.000    0.000
 write_s_matrix_csr                   1  6.0    0.000    0.000    0.000    0.000
 qs_scf_post_transport                1  6.0    0.000    0.000    0.000    0.000
 topology_coordinate_pack_1           1  4.0    0.000    0.000    0.000    0.000
 qs_ks_did_change                     3  6.0    0.000    0.000    0.000    0.000
 ec_env_release                       1  2.0    0.000    0.000    0.000    0.000
 write_structure_data                 1  3.0    0.000    0.000    0.000    0.000
 pw_env_create                        1  5.0    0.000    0.000    0.000    0.000
 contract2add                         6  9.0    0.000    0.000    0.000    0.000
 transport_current                    1  7.0    0.000    0.000    0.000    0.000
 atom_relint_setup                    2  8.0    0.000    0.000    0.000    0.000
 qs_scf_post_local_stress             1  6.0    0.000    0.000    0.000    0.000
 add_external_potential               1  2.0    0.000    0.000    0.000    0.000
 topology_connectivity_pack_11        1  4.0    0.000    0.000    0.000    0.000
 check_qs_kind_set                    1  3.0    0.000    0.000    0.000    0.000
 topology_connectivity_pack_6         1  4.0    0.000    0.000    0.000    0.000
 read_topology_section                1  3.0    0.000    0.000    0.000    0.000
 topology_constraint_pack_1           1  4.0    0.000    0.000    0.000    0.000
 qs_efield_berry_phase                2  9.5    0.000    0.000    0.000    0.000
 contract2                            9  9.0    0.000    0.000    0.000    0.000
 topology_connectivity_pack_11_       1  4.0    0.000    0.000    0.000    0.000
 kpoint_initialize                    1  2.0    0.000    0.000    0.000    0.000
 mp_min_rv                            1  2.0    0.000    0.000    0.000    0.000
 qs_scf_post_local_energy             1  6.0    0.000    0.000    0.000    0.000
 mp_max_rv                            1  2.0    0.000    0.000    0.000    0.000
 mp_sum_rv                            1  2.0    0.000    0.000    0.000    0.000
 topology_coordinate_pack_5           1  4.0    0.000    0.000    0.000    0.000
 metadyn_read                         1  2.0    0.000    0.000    0.000    0.000
 wfi_create                           1  3.0    0.000    0.000    0.000    0.000
 topology_muc                         1  4.0    0.000    0.000    0.000    0.000
 topology_connectivity_pack_5         1  4.0    0.000    0.000    0.000    0.000
 topology_connectivity_pack_14_       1  4.0    0.000    0.000    0.000    0.000
 write_ks_matrix_csr                  1  6.0    0.000    0.000    0.000    0.000
 qs_efield_local_operator             2  9.5    0.000    0.000    0.000    0.000
 write_symmetry                       1  3.0    0.000    0.000    0.000    0.000
 qs_scf_post_moments                  1  5.0    0.000    0.000    0.000    0.000
 topology_connectivity_pack_13_       1  4.0    0.000    0.000    0.000    0.000
 topology_connectivity_pack_12        1  4.0    0.000    0.000    0.000    0.000
 topology_constraint_pack_5           1  4.0    0.000    0.000    0.000    0.000
 topology_constraint_pack_3           1  4.0    0.000    0.000    0.000    0.000
 topology_connectivity_pack_14        1  4.0    0.000    0.000    0.000    0.000
 topology_connectivity_pack_4         1  4.0    0.000    0.000    0.000    0.000
 topology_connectivity_pack_12_       1  4.0    0.000    0.000    0.000    0.000
 read_mgrid_section                   1  3.0    0.000    0.000    0.000    0.000
 topology_connectivity_pack_13        1  4.0    0.000    0.000    0.000    0.000
 mp_dims_create                       3  9.0    0.000    0.000    0.000    0.000
 write_adjacency_matrix               1  6.0    0.000    0.000    0.000    0.000
 topology_coordinate_pack_7a          1  4.0    0.000    0.000    0.000    0.000
 read_binary_coordinates              1  3.0    0.000    0.000    0.000    0.000
 topology_connectivity_pack_9         1  4.0    0.000    0.000    0.000    0.000
 energy_correction                    1  3.0    0.000    0.000    0.000    0.000
 calculate_ecore_efield               1  4.0    0.000    0.000    0.000    0.000
 write_gto_basis_sets                 1  3.0    0.000    0.000    0.000    0.000
 topology_coordinate_pack_2           1  4.0    0.000    0.000    0.000    0.000
 handle_ext_restart                   1  3.0    0.000    0.000    0.000    0.000
 pw_poisson_set                       1  6.0    0.000    0.000    0.000    0.000
 write_molecule_kind_set              1  3.0    0.000    0.000    0.000    0.000
 fix_atom_control                     1  2.0    0.000    0.000    0.000    0.000
 topology_coordinate_pack_11          1  4.0    0.000    0.000    0.000    0.000
 rs_grid_max_ngpts                    4  6.0    0.000    0.000    0.000    0.000
 calculate_ecore_self                 1  4.0    0.000    0.000    0.000    0.000
 topology_coordinate_pack_89          1  4.0    0.000    0.000    0.000    0.000
 cp_ddapc_init                        1  5.0    0.000    0.000    0.000    0.000
 topology_connectivity_pack_2         1  4.0    0.000    0.000    0.000    0.000
 topology_connectivity_pack_3         1  4.0    0.000    0.000    0.000    0.000
 external_c_potential                 1  4.0    0.000    0.000    0.000    0.000
 topology_coordinate_pack_3           1  4.0    0.000    0.000    0.000    0.000
 fp_env_release                       3  2.0    0.000    0.000    0.000    0.000
 topology_coordinate_pack_6           1  4.0    0.000    0.000    0.000    0.000
 rescale_forces                       1  2.0    0.000    0.000    0.000    0.000
 topology_connectivity_pack_1         1  4.0    0.000    0.000    0.000    0.000
 topology_generate_bond_7             1  5.0    0.000    0.000    0.000    0.000
 topology_connectivity_pack_7         1  4.0    0.000    0.000    0.000    0.000
 linres_calculation_low               1  4.0    0.000    0.000    0.000    0.000
 topology_generate_molecule_PAR       1  5.0    0.000    0.000    0.000    0.000
 allocate_qs_energy                   1  3.0    0.000    0.000    0.000    0.000
 topology_constraint_pack_7           1  4.0    0.000    0.000    0.000    0.000
 ls_scf_init_qs                       1  5.0    0.000    0.000    0.000    0.000
 topology_coordinate_pack_4           1  4.0    0.000    0.000    0.000    0.000
 atom2d_cleanup                       1  5.0    0.000    0.000    0.000    0.000
 cp_result_release                    1  2.0    0.000    0.000    0.000    0.000
 fp_env_create                        1  2.0    0.000    0.000    0.000    0.000
 external_e_potential                 1  4.0    0.000    0.000    0.000    0.000
 topology_coordinate_pack_7b          1  4.0    0.000    0.000    0.000    0.000
 -------------------------------------------------------------------------------

 The number of warnings for this run is : 1
 
 -------------------------------------------------------------------------------
  **** **** ******  **  PROGRAM ENDED AT                 2020-05-27 14:57:29.772
 ***** ** ***  *** **   PROGRAM RAN ON                                   cn-0252
 **    ****   ******    PROGRAM RAN BY                                      lass
 ***** **    ** ** **   PROGRAM PROCESS ID                                 83595
  **** **  *******  **  PROGRAM STOPPED IN /scratch/hpc-prf-ldft/lass/lass20_sc/
                                           eval/linscaling-error-varying-size
