 DBCSR| CPU Multiplication driver                                           XSMM
 DBCSR| Multrec recursion limit                                              512
 DBCSR| Multiplication stack size                                           1000
 DBCSR| Maximum elements for images                                    UNLIMITED
 DBCSR| Multiplicative factor virtual images                                   1
 DBCSR| Use multiplication densification                                       T
 DBCSR| Multiplication size stacks                                             3
 DBCSR| Use memory pool for CPU allocation                                     F
 DBCSR| Number of 3D layers                                               SINGLE
 DBCSR| Use MPI memory allocation                                              F
 DBCSR| Use RMA algorithm                                                      F
 DBCSR| Use Communication thread                                               T
 DBCSR| Communication thread load                                             72


  **** **** ******  **  PROGRAM STARTED AT               2020-04-17 14:45:49.688
 ***** ** ***  *** **   PROGRAM STARTED ON                               cn-0010
 **    ****   ******    PROGRAM STARTED BY                                  lass
 ***** **    ** ** **   PROGRAM PROCESS ID                                250845
  **** **  *******  **  PROGRAM STARTED IN /scratch/hpc-prf-ldft/lass/lass20_sc/
                                           eval/software/varying-eps-NS-tweaked

 CP2K| version string:                    CP2K version 8.0 (Development Version)
 CP2K| source code revision number:                                  git:28e460e
 CP2K| cp2kflags: omp libint fftw3 libxc elpa parallel mpi3 scalapack xsmm max_c
 CP2K|            ontr=4 mkl
 CP2K| is freely available from                            https://www.cp2k.org/
 CP2K| Program compiled at                         Sa 11. Apr 21:37:19 CEST 2020
 CP2K| Program compiled on                                               ln-0001
 CP2K| Program compiled for                                   Linux-x86-64-intel
 CP2K| Data directory path                  /scratch/hpc-prf-ldft/lass/cp2k/data
 CP2K| Input file name                                                 input.inp
 
 GLOBAL| Force Environment number                                              1
 GLOBAL| Basis set file name                                        BASIS_MOLOPT
 GLOBAL| Potential file name                                           POTENTIAL
 GLOBAL| MM Potential file name                                     MM_POTENTIAL
 GLOBAL| Coordinate file name                                      __STD_INPUT__
 GLOBAL| Method name                                                        CP2K
 GLOBAL| Project name                                                        H2O
 GLOBAL| Preferred FFT library                                             FFTW3
 GLOBAL| Preferred diagonalization lib.                                     ELPA
 GLOBAL| Run type                                                         ENERGY
 GLOBAL| All-to-all communication in single precision                          F
 GLOBAL| FFTs using library dependent lengths                                  T
 GLOBAL| Global print level                                               MEDIUM
 GLOBAL| MPI I/O enabled                                                       T
 GLOBAL| Total number of message passing processes                            16
 GLOBAL| Number of threads for this process                                    5
 GLOBAL| This output is from process                                           0
 GLOBAL| CPU model name                 Intel(R) Xeon(R) Gold 6148 CPU @ 2.40GHz
 GLOBAL| CPUID                                                              1003

 MEMORY| system memory details [Kb]
 MEMORY|                        rank 0           min           max       average
 MEMORY| MemTotal            196699340     196699340     196699340     196699340
 MEMORY| MemFree             183074212     183074212     184619544     183846878
 MEMORY| Buffers                     0             0             0             0
 MEMORY| Cached                7120688       6159304       7120688       6639996
 MEMORY| Slab                  3123640       2607280       3123640       2865460
 MEMORY| SReclaimable          1386536       1289864       1386536       1338200
 MEMORY| MemLikelyFree       191581436     191581436     192068712     191825074


 *** Fundamental physical constants (SI units) ***

 *** Literature: B. J. Mohr and B. N. Taylor,
 ***             CODATA recommended values of the fundamental physical
 ***             constants: 2006, Web Version 5.1
 ***             http://physics.nist.gov/constants

 Speed of light in vacuum [m/s]                             2.99792458000000E+08
 Magnetic constant or permeability of vacuum [N/A**2]       1.25663706143592E-06
 Electric constant or permittivity of vacuum [F/m]          8.85418781762039E-12
 Planck constant (h) [J*s]                                  6.62606896000000E-34
 Planck constant (h-bar) [J*s]                              1.05457162825177E-34
 Elementary charge [C]                                      1.60217648700000E-19
 Electron mass [kg]                                         9.10938215000000E-31
 Electron g factor [ ]                                     -2.00231930436220E+00
 Proton mass [kg]                                           1.67262163700000E-27
 Fine-structure constant                                    7.29735253760000E-03
 Rydberg constant [1/m]                                     1.09737315685270E+07
 Avogadro constant [1/mol]                                  6.02214179000000E+23
 Boltzmann constant [J/K]                                   1.38065040000000E-23
 Atomic mass unit [kg]                                      1.66053878200000E-27
 Bohr radius [m]                                            5.29177208590000E-11

 *** Conversion factors ***

 [u] -> [a.u.]                                              1.82288848426455E+03
 [Angstrom] -> [Bohr] = [a.u.]                              1.88972613288564E+00
 [a.u.] = [Bohr] -> [Angstrom]                              5.29177208590000E-01
 [a.u.] -> [s]                                              2.41888432650478E-17
 [a.u.] -> [fs]                                             2.41888432650478E-02
 [a.u.] -> [J]                                              4.35974393937059E-18
 [a.u.] -> [N]                                              8.23872205491840E-08
 [a.u.] -> [K]                                              3.15774647902944E+05
 [a.u.] -> [kJ/mol]                                         2.62549961709828E+03
 [a.u.] -> [kcal/mol]                                       6.27509468713739E+02
 [a.u.] -> [Pa]                                             2.94210107994716E+13
 [a.u.] -> [bar]                                            2.94210107994716E+08
 [a.u.] -> [atm]                                            2.90362800883016E+08
 [a.u.] -> [eV]                                             2.72113838565563E+01
 [a.u.] -> [Hz]                                             6.57968392072181E+15
 [a.u.] -> [1/cm] (wave numbers)                            2.19474631370540E+05
 [a.u./Bohr**2] -> [1/cm]                                   5.14048714338585E+03
 

 CELL_TOP| Volume [angstrom^3]:                                       206601.159
 CELL_TOP| Vector a [angstrom    59.117     0.000     0.000    |a| =      59.117
 CELL_TOP| Vector b [angstrom     0.000    59.117     0.000    |b| =      59.117
 CELL_TOP| Vector c [angstrom     0.000     0.000    59.117    |c| =      59.117
 CELL_TOP| Angle (b,c), alpha [degree]:                                   90.000
 CELL_TOP| Angle (a,c), beta  [degree]:                                   90.000
 CELL_TOP| Angle (a,b), gamma [degree]:                                   90.000
 CELL_TOP| Numerically orthorhombic:                                         YES

 CELL_UC| Volume [angstrom^3]:                                           956.487
 CELL_UC| Vector a [angstrom]     9.853     0.000     0.000    |a| =       9.853
 CELL_UC| Vector b [angstrom]     0.000     9.853     0.000    |b| =       9.853
 CELL_UC| Vector c [angstrom]     0.000     0.000     9.853    |c| =       9.853
 CELL_UC| Angle (b,c), alpha [degree]:                                    90.000
 CELL_UC| Angle (a,c), beta  [degree]:                                    90.000
 CELL_UC| Angle (a,b), gamma [degree]:                                    90.000
 CELL_UC| Numerically orthorhombic:                                          YES
 
 GENERATE|  Preliminary Number of Bonds generated:                            64
 GENERATE|  Achieved consistency in connectivity generation.
 GENERATE|  Number of Bonds generated:                                        64
 GENERATE|  Preliminary Number of Bends generated:                            32
 GENERATE|  Number of Bends generated:                                        32
 GENERATE|  Number of UB generated:                                           32
 GENERATE|  Preliminary Number of Torsions generated:                          0

 CELL| Volume [angstrom^3]:                                           206601.159
 CELL| Vector a [angstrom]:      59.117     0.000     0.000    |a| =      59.117
 CELL| Vector b [angstrom]:       0.000    59.117     0.000    |b| =      59.117
 CELL| Vector c [angstrom]:       0.000     0.000    59.117    |c| =      59.117
 CELL| Angle (b,c), alpha [degree]:                                       90.000
 CELL| Angle (a,c), beta  [degree]:                                       90.000
 CELL| Angle (a,b), gamma [degree]:                                       90.000
 CELL| Numerically orthorhombic:                                             YES

 CELL_REF| Volume [angstrom^3]:                                       206601.159
 CELL_REF| Vector a [angstrom    59.117     0.000     0.000    |a| =      59.117
 CELL_REF| Vector b [angstrom     0.000    59.117     0.000    |b| =      59.117
 CELL_REF| Vector c [angstrom     0.000     0.000    59.117    |c| =      59.117
 CELL_REF| Angle (b,c), alpha [degree]:                                   90.000
 CELL_REF| Angle (a,c), beta  [degree]:                                   90.000
 CELL_REF| Angle (a,b), gamma [degree]:                                   90.000
 CELL_REF| Numerically orthorhombic:                                         YES

 *******************************************************************************
 *******************************************************************************
 **                                                                           **
 **     #####                         ##              ##                      **
 **    ##   ##            ##          ##              ##                      **
 **   ##     ##                       ##            ######                    **
 **   ##     ##  ##   ##  ##   #####  ##  ##   ####   ##    #####    #####    **
 **   ##     ##  ##   ##  ##  ##      ## ##   ##      ##   ##   ##  ##   ##   **
 **   ##  ## ##  ##   ##  ##  ##      ####     ###    ##   ######   ######    **
 **    ##  ###   ##   ##  ##  ##      ## ##      ##   ##   ##       ##        **
 **     #######   #####   ##   #####  ##  ##  ####    ##    #####   ##        **
 **           ##                                                    ##        **
 **                                                                           **
 **                                                ... make the atoms dance   **
 **                                                                           **
 **            Copyright (C) by CP2K developers group (2000 - 2020)           **
 **                                                                           **
 *******************************************************************************

 DFT| Spin restricted Kohn-Sham (RKS) calculation                            RKS
 DFT| Multiplicity                                                             1
 DFT| Number of spin states                                                    1
 DFT| Charge                                                                   0
 DFT| Self-interaction correction (SIC)                                       NO
 DFT| Cutoffs: density                                              1.000000E-10
 DFT|          gradient                                             1.000000E-10
 DFT|          tau                                                  1.000000E-10
 DFT|          cutoff_smoothing_range                               0.000000E+00
 DFT| XC density smoothing                                                  NONE
 DFT| XC derivatives                                                          PW
 FUNCTIONAL| ROUTINE=NEW
 FUNCTIONAL| PADE:
 FUNCTIONAL| S. Goedecker, M. Teter and J. Hutter, Phys. Rev. B 54, 1703 (1996) 

 QS| Method:                                                                 GPW
 QS| Density plane wave grid type                        NON-SPHERICAL FULLSPACE
 QS| Number of grid levels:                                                    4
 QS| Density cutoff [a.u.]:                                                150.0
 QS| Multi grid cutoff [a.u.]: 1) grid level                               150.0
 QS|                           2) grid level                                50.0
 QS|                           3) grid level                                16.7
 QS|                           4) grid level                                 5.6
 QS| Grid level progression factor:                                          3.0
 QS| Relative density cutoff [a.u.]:                                        20.0
 QS| Interaction thresholds: eps_pgf_orb:                                1.0E-05
 QS|                         eps_filter_matrix:                          0.0E+00
 QS|                         eps_core_charge:                            1.0E-12
 QS|                         eps_rho_gspace:                             1.0E-10
 QS|                         eps_rho_rspace:                             1.0E-10
 QS|                         eps_gvg_rspace:                             1.0E-05
 QS|                         eps_ppl:                                    1.0E-02
 QS|                         eps_ppnl:                                   1.0E-07


 ATOMIC KIND INFORMATION

  1. Atomic kind: O                                     Number of atoms:    6912

     Orbital Basis Set                                         SZV-MOLOPT-SR-GTH

       Number of orbital shell sets:                                           1
       Number of orbital shells:                                               2
       Number of primitive Cartesian functions:                                5
       Number of Cartesian basis functions:                                    4
       Number of spherical basis functions:                                    4
       Norm type:                                                              2

       Normalised Cartesian orbitals:

                        Set   Shell   Orbital            Exponent    Coefficient

                          1       1    2s               10.389228       0.396646
                                                         3.849621       0.208811
                                                         1.388401      -0.301641
                                                         0.496955      -0.274061
                                                         0.162492      -0.033677

                          1       2    3px              10.389228      -1.530415
                                                         3.849621      -1.371928
                                                         1.388401      -0.761951
                                                         0.496955      -0.253695
                                                         0.162492      -0.035541
                          1       2    3py              10.389228      -1.530415
                                                         3.849621      -1.371928
                                                         1.388401      -0.761951
                                                         0.496955      -0.253695
                                                         0.162492      -0.035541
                          1       2    3pz              10.389228      -1.530415
                                                         3.849621      -1.371928
                                                         1.388401      -0.761951
                                                         0.496955      -0.253695
                                                         0.162492      -0.035541

     GTH Potential information for                                   GTH-PADE-q6

       Description:                       Goedecker-Teter-Hutter pseudopotential
                                           Goedecker et al., PRB 54, 1703 (1996)
                                          Hartwigsen et al., PRB 58, 3641 (1998)
                                                      Krack, TCA 114, 145 (2005)

       Gaussian exponent of the core charge distribution:               8.154466
       Electronic configuration (s p d ...):                               2   4

       Parameters of the local part of the GTH pseudopotential:

                          rloc        C1          C2          C3          C4
                        0.247621  -16.580318    2.395701

       Parameters of the non-local part of the GTH pseudopotential:

                   l      r(l)      h(i,j,l)

                   0    0.221786   18.266917
                   1    0.256829

  2. Atomic kind: H                                     Number of atoms:   13824

     Orbital Basis Set                                         SZV-MOLOPT-SR-GTH

       Number of orbital shell sets:                                           1
       Number of orbital shells:                                               1
       Number of primitive Cartesian functions:                                5
       Number of Cartesian basis functions:                                    1
       Number of spherical basis functions:                                    1
       Norm type:                                                              2

       Normalised Cartesian orbitals:

                        Set   Shell   Orbital            Exponent    Coefficient

                          1       1    2s               10.068468      -0.133023
                                                         2.680223      -0.177618
                                                         0.791502      -0.258419
                                                         0.239116      -0.107525
                                                         0.082193      -0.014019

     GTH Potential information for                                   GTH-PADE-q1

       Description:                       Goedecker-Teter-Hutter pseudopotential
                                           Goedecker et al., PRB 54, 1703 (1996)
                                          Hartwigsen et al., PRB 58, 3641 (1998)
                                                      Krack, TCA 114, 145 (2005)

       Gaussian exponent of the core charge distribution:              12.500000
       Electronic configuration (s p d ...):                                   1

       Parameters of the local part of the GTH pseudopotential:

                          rloc        C1          C2          C3          C4
                        0.200000   -4.180237    0.725075


 TOTAL NUMBERS AND MAXIMUM NUMBERS

  Total number of            - Atomic kinds:                                   2
                             - Atoms:                                      20736
                             - Shell sets:                                 20736
                             - Shells:                                     27648
                             - Primitive Cartesian functions:             103680
                             - Cartesian basis functions:                  41472
                             - Spherical basis functions:                  41472

  Maximum angular momentum of- Orbital basis functions:                        1
                             - Local part of the GTH pseudopotential:          2
                             - Non-local part of the GTH pseudopotential:      0

 PW_GRID| Information for grid number                                          1
 PW_GRID| Grid distributed over                                    16 processors
 PW_GRID| Real space group dimensions                                    16    1
 PW_GRID| the grid is blocked:                                                NO
 PW_GRID| Cutoff [a.u.]                                                    150.0
 PW_GRID| spherical cutoff:                                                   NO
 PW_GRID|   Bounds   1           -308     307                Points:         616
 PW_GRID|   Bounds   2           -308     307                Points:         616
 PW_GRID|   Bounds   3           -308     307                Points:         616
 PW_GRID| Volume element (a.u.^3)  0.5965E-02     Volume (a.u.^3)   1394213.7440
 PW_GRID| Grid span                                                    FULLSPACE
 PW_GRID|   Distribution                         Average         Max         Min
 PW_GRID|   G-Vectors                         14609056.0    14609056    14609056
 PW_GRID|   G-Rays                               23716.0       23716       23716
 PW_GRID|   Real Space Points                 14609056.0    14798784    14419328

 PW_GRID| Information for grid number                                          2
 PW_GRID| Number of the reference grid                                         1
 PW_GRID| Grid distributed over                                    16 processors
 PW_GRID| Real space group dimensions                                    16    1
 PW_GRID| the grid is blocked:                                                NO
 PW_GRID| Cutoff [a.u.]                                                     50.0
 PW_GRID| spherical cutoff:                                                   NO
 PW_GRID|   Bounds   1           -180     179                Points:         360
 PW_GRID|   Bounds   2           -180     179                Points:         360
 PW_GRID|   Bounds   3           -180     179                Points:         360
 PW_GRID| Volume element (a.u.^3)  0.2988E-01     Volume (a.u.^3)   1394213.7440
 PW_GRID| Grid span                                                    FULLSPACE
 PW_GRID|   Distribution                         Average         Max         Min
 PW_GRID|   G-Vectors                          2916000.0     2916720     2915640
 PW_GRID|   G-Rays                                8100.0        8102        8099
 PW_GRID|   Real Space Points                  2916000.0     2980800     2851200

 PW_GRID| Information for grid number                                          3
 PW_GRID| Number of the reference grid                                         1
 PW_GRID| Grid distributed over                                    16 processors
 PW_GRID| Real space group dimensions                                    16    1
 PW_GRID| the grid is blocked:                                                NO
 PW_GRID| Cutoff [a.u.]                                                     16.7
 PW_GRID| spherical cutoff:                                                   NO
 PW_GRID|   Bounds   1           -105     104                Points:         210
 PW_GRID|   Bounds   2           -105     104                Points:         210
 PW_GRID|   Bounds   3           -105     104                Points:         210
 PW_GRID| Volume element (a.u.^3)  0.1505         Volume (a.u.^3)   1394213.7440
 PW_GRID| Grid span                                                    FULLSPACE
 PW_GRID|   Distribution                         Average         Max         Min
 PW_GRID|   G-Vectors                           578812.5      579390      578340
 PW_GRID|   G-Rays                                2756.2        2759        2754
 PW_GRID|   Real Space Points                   578812.5      617400      573300

 PW_GRID| Information for grid number                                          4
 PW_GRID| Number of the reference grid                                         1
 PW_GRID| Grid distributed over                                    16 processors
 PW_GRID| Real space group dimensions                                    16    1
 PW_GRID| the grid is blocked:                                                NO
 PW_GRID| Cutoff [a.u.]                                                      5.6
 PW_GRID| spherical cutoff:                                                   NO
 PW_GRID|   Bounds   1            -60      59                Points:         120
 PW_GRID|   Bounds   2            -60      59                Points:         120
 PW_GRID|   Bounds   3            -60      59                Points:         120
 PW_GRID| Volume element (a.u.^3)  0.8068         Volume (a.u.^3)   1394213.7440
 PW_GRID| Grid span                                                    FULLSPACE
 PW_GRID|   Distribution                         Average         Max         Min
 PW_GRID|   G-Vectors                           108000.0      108240      107880
 PW_GRID|   G-Rays                                 900.0         902         899
 PW_GRID|   Real Space Points                   108000.0      115200      100800

 POISSON| Solver                                                        PERIODIC
 POISSON| Periodicity                                                        XYZ

 RS_GRID| Information for grid number                                          1
 RS_GRID|   Bounds   1           -308     307                Points:         616
 RS_GRID|   Bounds   2           -308     307                Points:         616
 RS_GRID|   Bounds   3           -308     307                Points:         616
 RS_GRID| Real space distribution over                                  4 groups
 RS_GRID| Real space distribution along direction                              2
 RS_GRID| Border size                                                         19
 RS_GRID| Real space distribution over                                  4 groups
 RS_GRID| Real space distribution along direction                              3
 RS_GRID| Border size                                                         19
 RS_GRID|   Distribution                         Average         Max         Min
 RS_GRID|   Planes                                 192.0         192         192
 RS_GRID|   Distribution                         Average         Max         Min
 RS_GRID|   Planes                                 192.0         192         192

 RS_GRID| Information for grid number                                          2
 RS_GRID|   Bounds   1           -180     179                Points:         360
 RS_GRID|   Bounds   2           -180     179                Points:         360
 RS_GRID|   Bounds   3           -180     179                Points:         360
 RS_GRID| Real space distribution over                                  4 groups
 RS_GRID| Real space distribution along direction                              2
 RS_GRID| Border size                                                         19
 RS_GRID| Real space distribution over                                  4 groups
 RS_GRID| Real space distribution along direction                              3
 RS_GRID| Border size                                                         19
 RS_GRID|   Distribution                         Average         Max         Min
 RS_GRID|   Planes                                 128.0         128         128
 RS_GRID|   Distribution                         Average         Max         Min
 RS_GRID|   Planes                                 128.0         128         128

 RS_GRID| Information for grid number                                          3
 RS_GRID|   Bounds   1           -105     104                Points:         210
 RS_GRID|   Bounds   2           -105     104                Points:         210
 RS_GRID|   Bounds   3           -105     104                Points:         210
 RS_GRID| Real space distribution over                                  4 groups
 RS_GRID| Real space distribution along direction                              2
 RS_GRID| Border size                                                         20
 RS_GRID| Real space distribution over                                  4 groups
 RS_GRID| Real space distribution along direction                              3
 RS_GRID| Border size                                                         20
 RS_GRID|   Distribution                         Average         Max         Min
 RS_GRID|   Planes                                  92.5          93          92
 RS_GRID|   Distribution                         Average         Max         Min
 RS_GRID|   Planes                                  92.5          93          92

 RS_GRID| Information for grid number                                          4
 RS_GRID|   Bounds   1            -60      59                Points:         120
 RS_GRID|   Bounds   2            -60      59                Points:         120
 RS_GRID|   Bounds   3            -60      59                Points:         120
 RS_GRID| Real space distribution over                                  4 groups
 RS_GRID| Real space distribution along direction                              2
 RS_GRID| Border size                                                         20
 RS_GRID| Real space distribution over                                  4 groups
 RS_GRID| Real space distribution along direction                              3
 RS_GRID| Border size                                                         20
 RS_GRID|   Distribution                         Average         Max         Min
 RS_GRID|   Planes                                  70.0          70          70
 RS_GRID|   Distribution                         Average         Max         Min
 RS_GRID|   Planes                                  70.0          70          70

 ------------------------------ Linear scaling SCF -----------------------------
 eps_scf:                                                              0.100E-02
 eps_filter:                                                           0.100E-02
 mixing_fraction:                                                      0.450E+00
 max_scf:                                                                      1
 fixed chemical potential (mu)                                                 F
 has unit metric:                                                              F
 Computing inv(S):                                                             T
 Computing sqrt(S):                                                            T
 Computing S preconditioner                                                    T
 S sqrt method:                                                     NEWTONSCHULZ
 S sqrt order:                                                                 3
 Extrapolation order:                                                          4
 Use single precision matrices                                                 F
 S preconditioner type                                                 MOLECULAR
 Polarized Atomic Orbitals (PAO)                                               F
 Purification method                                              sign iteration
 Sign method:                                                      newton schulz
 Sign order:                                                                   2
 Symmetric sign calculation:                                                   T
 Cluster type                                                          MOLECULAR
 Computing Chebyshev                                                       FALSE
 Using PAO                                                                     F
 -------------------------------------------------------------------------------

 
     Lanczos converged:  T threshold:   0.100E-02
     Est. extremal eigenvalues:    0.192E+01   0.330E+00
     Est. condition number :    0.582E+01
 
 Order=           3
     NS sqrt iter    1 0.00014468   0.511E+00       0.098        7.653
     NS sqrt iter    2 0.00014468   0.198E+00       0.048       15.459
     NS sqrt iter    3 0.00014468   0.121E-01       0.092        8.083
     NS sqrt iter    4 0.00014468   0.378E-05       0.049       11.461
     Symmetrizing Results
     Final NS sqrt iter    4 0.00014468   0.235E-10

 
     Lanczos converged:  T threshold:   0.100E-02
     Est. extremal eigenvalues:    0.164E+01   0.622E+00
     Est. condition number :    0.263E+01
 
 Order=           3
     NS sqrt iter    1 0.00339084   0.258E+00       0.226      967.124
     NS sqrt iter    2 0.00341345   0.203E-01       0.179      640.540
     Symmetrizing Results
     Final NS sqrt iter    2 0.00342701   0.634E-03



 Guess for atomic kind: O

 Electronic structure
    Total number of core electrons                                          2.00
    Total number of valence electrons                                       6.00
    Total number of electrons                                               8.00
    Multiplicity                                                   not specified
    S   [  2.00] 2.00
    P      4.00
 

 *******************************************************************************
                  Iteration          Convergence                     Energy [au]
 *******************************************************************************
                          1         0.00000                     -15.707921728522

 Energy components [Hartree]           Total Energy ::          -15.707921728522
                                        Band Energy ::           -2.136736949465
                                     Kinetic Energy ::           11.912575941791
                                   Potential Energy ::          -27.620497670312
                                      Virial (-V/T) ::            2.318599923751
                                        Core Energy ::          -26.283592465485
                                          XC Energy ::           -3.178950412391
                                     Coulomb Energy ::           13.754621149354
                       Total Pseudopotential Energy ::          -38.230330262842
                       Local Pseudopotential Energy ::          -39.524789846979
                    Nonlocal Pseudopotential Energy ::            1.294459584137
                                        Confinement ::            0.341618555667

 Orbital energies  State     L     Occupation   Energy[a.u.]          Energy[eV]

                       1     0          2.000      -0.709155          -19.297083
 
                       1     1          4.000      -0.179607           -4.887351
 

 Total Electron Density at R=0:                                         0.000031

 Guess for atomic kind: H

 Electronic structure
    Total number of core electrons                                          0.00
    Total number of valence electrons                                       1.00
    Total number of electrons                                               1.00
    Multiplicity                                                   not specified
    S      1.00
 

 *******************************************************************************
                  Iteration          Convergence                     Energy [au]
 *******************************************************************************
                          1         0.00000                      -0.372474116344

 Energy components [Hartree]           Total Energy ::           -0.372474116344
                                        Band Energy ::           -0.184689713228
                                     Kinetic Energy ::            0.795946116619
                                   Potential Energy ::           -1.168420232963
                                      Virial (-V/T) ::            1.467963984706
                                        Core Energy ::           -0.452545141516
                                          XC Energy ::           -0.314416247311
                                     Coulomb Energy ::            0.394487272483
                       Total Pseudopotential Energy ::           -1.259976600556
                       Local Pseudopotential Energy ::           -1.259976600556
                    Nonlocal Pseudopotential Energy ::            0.000000000000
                                        Confinement ::            0.114853424211

 Orbital energies  State     L     Occupation   Energy[a.u.]          Energy[eV]

                       1     0          1.000      -0.184690           -5.025663
 

 Total Electron Density at R=0:                                         0.476934
 Re-scaling the density matrix to get the right number of electrons
                  # Electrons              Trace(P)               Scaling factor
                        55296             55296.000                        1.000
 Energy with the initial guess:   -117107.875093026

 
     NS sign iter    1 0.00323260   0.906E+01       0.087      718.822
     NS sign iter    2 0.00323260   0.424E+01       0.091      866.799
     NS sign iter    3 0.00324617   0.210E+01       0.122      859.583
     NS sign iter    4 0.00368019   0.106E+01       0.159      818.780
     NS sign iter    5 0.00441714   0.467E+00       0.174      966.011
     NS sign iter    6 0.00470113   0.153E+00       0.184     1193.340
     NS sign iter    7 0.00478703   0.282E-01       0.179     1191.063
     Final NS sign iter   7 0.00478703   0.202E-02

 Deviation from idempotency:       0.157153911621
 Energy Tr(DK)  -12165.465548726594
 Density matrix:  iter, mu, trace error:  1   0.070000000    -3.651680856
 
     NS sign iter    1 0.00322808   0.899E+01       0.382      162.469
     NS sign iter    2 0.00322808   0.422E+01       0.207      380.447
     NS sign iter    3 0.00324617   0.209E+01       0.095     1099.872
     NS sign iter    4 0.00368471   0.106E+01       0.115     1132.952
     NS sign iter    5 0.00446687   0.462E+00       0.133     1273.251
     NS sign iter    6 0.00478787   0.148E+00       0.167     1359.241
     NS sign iter    7 0.00487377   0.265E-01       0.171     1305.009
     Final NS sign iter   7 0.00487377   0.191E-02

 Deviation from idempotency:       0.160402698738
 Energy Tr(DK)  -12165.555560885681
 Density matrix:  iter, mu, trace error:  2   0.080000000    -1.740753437
 
     NS sign iter    1 0.00321904   0.883E+01       0.082      747.982
     NS sign iter    2 0.00321904   0.417E+01       0.080      975.884
     NS sign iter    3 0.00323712   0.208E+01       0.091     1145.165
     NS sign iter    4 0.00368019   0.106E+01       0.112     1157.973
     NS sign iter    5 0.00457990   0.457E+00       0.139     1232.631
     NS sign iter    6 0.00497776   0.143E+00       0.168     1432.738
     NS sign iter    7 0.00505009   0.273E-01       0.195     1254.338
     Final NS sign iter   7 0.00505009   0.261E-02

 Deviation from idempotency:       0.192808739646
 Energy Tr(DK)  -12165.199646147015
 Density matrix:  iter, mu, trace error:  3   0.100000000     1.985504230
 
     NS sign iter    1 0.00322356   0.891E+01       0.143      431.742
     NS sign iter    2 0.00322356   0.419E+01       0.112      698.033
     NS sign iter    3 0.00324164   0.209E+01       0.100     1039.115
     NS sign iter    4 0.00368019   0.106E+01       0.121     1076.770
     NS sign iter    5 0.00452112   0.459E+00       0.174      979.684
     NS sign iter    6 0.00487360   0.144E+00       0.162     1434.535
     NS sign iter    7 0.00495934   0.262E-01       0.181     1281.347
     Final NS sign iter   7 0.00495934   0.206E-02

 Deviation from idempotency:       0.170032287843
 Energy Tr(DK)  -12165.470092349553
 Density matrix:  iter, mu, trace error:  4   0.090000000     0.077991945
 
 SCF     1   -117996.548718203   -117996.548718203   18.691188
 
 SCF not converged! 

 !-----------------------------------------------------------------------------!
                           Hirshfeld Charges

  #Atom  Element  Kind  Ref Charge     Population                    Net charge
      1       O      1       6.000          7.342                        -1.342
      2       H      2       1.000          0.330                         0.670
      3       H      2       1.000          0.327                         0.673
      4       O      1       6.000          7.349                        -1.349
      5       H      2       1.000          0.328                         0.672
      6       H      2       1.000          0.330                         0.670
      7       O      1       6.000          7.339                        -1.339
      8       H      2       1.000          0.328                         0.672
      9       H      2       1.000          0.328                         0.672
     10       O      1       6.000          7.342                        -1.342
     11       H      2       1.000          0.328                         0.672
     12       H      2       1.000          0.328                         0.672
     13       O      1       6.000          7.330                        -1.330
     14       H      2       1.000          0.330                         0.670
     15       H      2       1.000          0.330                         0.670
     16       O      1       6.000          7.351                        -1.351
     17       H      2       1.000          0.328                         0.672
     18       H      2       1.000          0.327                         0.673
     19       O      1       6.000          7.327                        -1.327
     20       H      2       1.000          0.327                         0.673
     21       H      2       1.000          0.329                         0.671
     22       O      1       6.000          7.337                        -1.337
     23       H      2       1.000          0.329                         0.671
     24       H      2       1.000          0.328                         0.672
     25       O      1       6.000          7.356                        -1.356
     26       H      2       1.000          0.329                         0.671
     27       H      2       1.000          0.329                         0.671
     28       O      1       6.000          7.345                        -1.345
     29       H      2       1.000          0.328                         0.672
     30       H      2       1.000          0.329                         0.671
     31       O      1       6.000          7.342                        -1.342
     32       H      2       1.000          0.330                         0.670
     33       H      2       1.000          0.329                         0.671
     34       O      1       6.000          7.375                        -1.375
     35       H      2       1.000          0.328                         0.672
     36       H      2       1.000          0.328                         0.672
     37       O      1       6.000          7.343                        -1.343
     38       H      2       1.000          0.331                         0.669
     39       H      2       1.000          0.328                         0.672
     40       O      1       6.000          7.343                        -1.343
     41       H      2       1.000          0.327                         0.673
     42       H      2       1.000          0.327                         0.673
     43       O      1       6.000          7.355                        -1.355
     44       H      2       1.000          0.329                         0.671
     45       H      2       1.000          0.330                         0.670
     46       O      1       6.000          7.327                        -1.327
     47       H      2       1.000          0.327                         0.673
     48       H      2       1.000          0.330                         0.670
     49       O      1       6.000          7.328                        -1.328
     50       H      2       1.000          0.328                         0.672
     51       H      2       1.000          0.330                         0.670
     52       O      1       6.000          7.360                        -1.360
     53       H      2       1.000          0.329                         0.671
     54       H      2       1.000          0.329                         0.671
     55       O      1       6.000          7.339                        -1.339
     56       H      2       1.000          0.327                         0.673
     57       H      2       1.000          0.329                         0.671
     58       O      1       6.000          7.340                        -1.340
     59       H      2       1.000          0.329                         0.671
     60       H      2       1.000          0.330                         0.670
     61       O      1       6.000          7.336                        -1.336
     62       H      2       1.000          0.327                         0.673
     63       H      2       1.000          0.329                         0.671
     64       O      1       6.000          7.351                        -1.351
     65       H      2       1.000          0.330                         0.670
     66       H      2       1.000          0.328                         0.672
     67       O      1       6.000          7.340                        -1.340
     68       H      2       1.000          0.329                         0.671
     69       H      2       1.000          0.327                         0.673
     70       O      1       6.000          7.344                        -1.344
     71       H      2       1.000          0.328                         0.672
     72       H      2       1.000          0.329                         0.671
     73       O      1       6.000          7.338                        -1.338
     74       H      2       1.000          0.330                         0.670
     75       H      2       1.000          0.328                         0.672
     76       O      1       6.000          7.339                        -1.339
     77       H      2       1.000          0.328                         0.672
     78       H      2       1.000          0.329                         0.671
     79       O      1       6.000          7.342                        -1.342
     80       H      2       1.000          0.327                         0.673
     81       H      2       1.000          0.329                         0.671
     82       O      1       6.000          7.335                        -1.335
     83       H      2       1.000          0.330                         0.670
     84       H      2       1.000          0.329                         0.671
     85       O      1       6.000          7.323                        -1.323
     86       H      2       1.000          0.327                         0.673
     87       H      2       1.000          0.330                         0.670
     88       O      1       6.000          7.346                        -1.346
     89       H      2       1.000          0.327                         0.673
     90       H      2       1.000          0.329                         0.671
     91       O      1       6.000          7.339                        -1.339
     92       H      2       1.000          0.328                         0.672
     93       H      2       1.000          0.330                         0.670
     94       O      1       6.000          7.349                        -1.349
     95       H      2       1.000          0.328                         0.672
     96       H      2       1.000          0.328                         0.672
     97       O      1       6.000          7.342                        -1.342
     98       H      2       1.000          0.330                         0.670
     99       H      2       1.000          0.327                         0.673
    100       O      1       6.000          7.349                        -1.349
    101       H      2       1.000          0.328                         0.672
    102       H      2       1.000          0.330                         0.670
    103       O      1       6.000          7.339                        -1.339
    104       H      2       1.000          0.328                         0.672
    105       H      2       1.000          0.328                         0.672
    106       O      1       6.000          7.342                        -1.342
    107       H      2       1.000          0.328                         0.672
    108       H      2       1.000          0.328                         0.672
    109       O      1       6.000          7.330                        -1.330
    110       H      2       1.000          0.330                         0.670
    111       H      2       1.000          0.330                         0.670
    112       O      1       6.000          7.351                        -1.351
    113       H      2       1.000          0.328                         0.672
    114       H      2       1.000          0.327                         0.673
    115       O      1       6.000          7.327                        -1.327
    116       H      2       1.000          0.327                         0.673
    117       H      2       1.000          0.329                         0.671
    118       O      1       6.000          7.337                        -1.337
    119       H      2       1.000          0.329                         0.671
    120       H      2       1.000          0.328                         0.672
    121       O      1       6.000          7.356                        -1.356
    122       H      2       1.000          0.329                         0.671
    123       H      2       1.000          0.329                         0.671
    124       O      1       6.000          7.345                        -1.345
    125       H      2       1.000          0.328                         0.672
    126       H      2       1.000          0.329                         0.671
    127       O      1       6.000          7.342                        -1.342
    128       H      2       1.000          0.330                         0.670
    129       H      2       1.000          0.329                         0.671
    130       O      1       6.000          7.375                        -1.375
    131       H      2       1.000          0.328                         0.672
    132       H      2       1.000          0.328                         0.672
    133       O      1       6.000          7.343                        -1.343
    134       H      2       1.000          0.331                         0.669
    135       H      2       1.000          0.328                         0.672
    136       O      1       6.000          7.343                        -1.343
    137       H      2       1.000          0.327                         0.673
    138       H      2       1.000          0.327                         0.673
    139       O      1       6.000          7.355                        -1.355
    140       H      2       1.000          0.329                         0.671
    141       H      2       1.000          0.330                         0.670
    142       O      1       6.000          7.327                        -1.327
    143       H      2       1.000          0.327                         0.673
    144       H      2       1.000          0.330                         0.670
    145       O      1       6.000          7.328                        -1.328
    146       H      2       1.000          0.328                         0.672
    147       H      2       1.000          0.330                         0.670
    148       O      1       6.000          7.360                        -1.360
    149       H      2       1.000          0.329                         0.671
    150       H      2       1.000          0.329                         0.671
    151       O      1       6.000          7.339                        -1.339
    152       H      2       1.000          0.327                         0.673
    153       H      2       1.000          0.329                         0.671
    154       O      1       6.000          7.340                        -1.340
    155       H      2       1.000          0.329                         0.671
    156       H      2       1.000          0.330                         0.670
    157       O      1       6.000          7.336                        -1.336
    158       H      2       1.000          0.327                         0.673
    159       H      2       1.000          0.329                         0.671
    160       O      1       6.000          7.351                        -1.351
    161       H      2       1.000          0.330                         0.670
    162       H      2       1.000          0.328                         0.672
    163       O      1       6.000          7.340                        -1.340
    164       H      2       1.000          0.329                         0.671
    165       H      2       1.000          0.327                         0.673
    166       O      1       6.000          7.344                        -1.344
    167       H      2       1.000          0.328                         0.672
    168       H      2       1.000          0.329                         0.671
    169       O      1       6.000          7.338                        -1.338
    170       H      2       1.000          0.330                         0.670
    171       H      2       1.000          0.328                         0.672
    172       O      1       6.000          7.339                        -1.339
    173       H      2       1.000          0.328                         0.672
    174       H      2       1.000          0.329                         0.671
    175       O      1       6.000          7.342                        -1.342
    176       H      2       1.000          0.327                         0.673
    177       H      2       1.000          0.329                         0.671
    178       O      1       6.000          7.335                        -1.335
    179       H      2       1.000          0.330                         0.670
    180       H      2       1.000          0.329                         0.671
    181       O      1       6.000          7.323                        -1.323
    182       H      2       1.000          0.327                         0.673
    183       H      2       1.000          0.330                         0.670
    184       O      1       6.000          7.346                        -1.346
    185       H      2       1.000          0.327                         0.673
    186       H      2       1.000          0.329                         0.671
    187       O      1       6.000          7.339                        -1.339
    188       H      2       1.000          0.328                         0.672
    189       H      2       1.000          0.330                         0.670
    190       O      1       6.000          7.348                        -1.348
    191       H      2       1.000          0.328                         0.672
    192       H      2       1.000          0.328                         0.672
    193       O      1       6.000          7.342                        -1.342
    194       H      2       1.000          0.330                         0.670
    195       H      2       1.000          0.327                         0.673
    196       O      1       6.000          7.349                        -1.349
    197       H      2       1.000          0.328                         0.672
    198       H      2       1.000          0.330                         0.670
    199       O      1       6.000          7.339                        -1.339
    200       H      2       1.000          0.328                         0.672
    201       H      2       1.000          0.328                         0.672
    202       O      1       6.000          7.342                        -1.342
    203       H      2       1.000          0.328                         0.672
    204       H      2       1.000          0.328                         0.672
    205       O      1       6.000          7.330                        -1.330
    206       H      2       1.000          0.330                         0.670
    207       H      2       1.000          0.330                         0.670
    208       O      1       6.000          7.351                        -1.351
    209       H      2       1.000          0.328                         0.672
    210       H      2       1.000          0.327                         0.673
    211       O      1       6.000          7.327                        -1.327
    212       H      2       1.000          0.327                         0.673
    213       H      2       1.000          0.329                         0.671
    214       O      1       6.000          7.337                        -1.337
    215       H      2       1.000          0.329                         0.671
    216       H      2       1.000          0.328                         0.672
    217       O      1       6.000          7.356                        -1.356
    218       H      2       1.000          0.329                         0.671
    219       H      2       1.000          0.329                         0.671
    220       O      1       6.000          7.345                        -1.345
    221       H      2       1.000          0.328                         0.672
    222       H      2       1.000          0.329                         0.671
    223       O      1       6.000          7.342                        -1.342
    224       H      2       1.000          0.330                         0.670
    225       H      2       1.000          0.329                         0.671
    226       O      1       6.000          7.375                        -1.375
    227       H      2       1.000          0.328                         0.672
    228       H      2       1.000          0.328                         0.672
    229       O      1       6.000          7.343                        -1.343
    230       H      2       1.000          0.331                         0.669
    231       H      2       1.000          0.328                         0.672
    232       O      1       6.000          7.343                        -1.343
    233       H      2       1.000          0.327                         0.673
    234       H      2       1.000          0.327                         0.673
    235       O      1       6.000          7.355                        -1.355
    236       H      2       1.000          0.329                         0.671
    237       H      2       1.000          0.330                         0.670
    238       O      1       6.000          7.327                        -1.327
    239       H      2       1.000          0.327                         0.673
    240       H      2       1.000          0.330                         0.670
    241       O      1       6.000          7.328                        -1.328
    242       H      2       1.000          0.328                         0.672
    243       H      2       1.000          0.330                         0.670
    244       O      1       6.000          7.360                        -1.360
    245       H      2       1.000          0.329                         0.671
    246       H      2       1.000          0.329                         0.671
    247       O      1       6.000          7.339                        -1.339
    248       H      2       1.000          0.327                         0.673
    249       H      2       1.000          0.329                         0.671
    250       O      1       6.000          7.340                        -1.340
    251       H      2       1.000          0.329                         0.671
    252       H      2       1.000          0.330                         0.670
    253       O      1       6.000          7.336                        -1.336
    254       H      2       1.000          0.327                         0.673
    255       H      2       1.000          0.329                         0.671
    256       O      1       6.000          7.351                        -1.351
    257       H      2       1.000          0.330                         0.670
    258       H      2       1.000          0.328                         0.672
    259       O      1       6.000          7.340                        -1.340
    260       H      2       1.000          0.329                         0.671
    261       H      2       1.000          0.327                         0.673
    262       O      1       6.000          7.344                        -1.344
    263       H      2       1.000          0.328                         0.672
    264       H      2       1.000          0.329                         0.671
    265       O      1       6.000          7.338                        -1.338
    266       H      2       1.000          0.330                         0.670
    267       H      2       1.000          0.328                         0.672
    268       O      1       6.000          7.339                        -1.339
    269       H      2       1.000          0.328                         0.672
    270       H      2       1.000          0.329                         0.671
    271       O      1       6.000          7.342                        -1.342
    272       H      2       1.000          0.327                         0.673
    273       H      2       1.000          0.329                         0.671
    274       O      1       6.000          7.336                        -1.336
    275       H      2       1.000          0.330                         0.670
    276       H      2       1.000          0.329                         0.671
    277       O      1       6.000          7.323                        -1.323
    278       H      2       1.000          0.327                         0.673
    279       H      2       1.000          0.330                         0.670
    280       O      1       6.000          7.346                        -1.346
    281       H      2       1.000          0.327                         0.673
    282       H      2       1.000          0.329                         0.671
    283       O      1       6.000          7.339                        -1.339
    284       H      2       1.000          0.328                         0.672
    285       H      2       1.000          0.330                         0.670
    286       O      1       6.000          7.349                        -1.349
    287       H      2       1.000          0.328                         0.672
    288       H      2       1.000          0.328                         0.672
    289       O      1       6.000          7.342                        -1.342
    290       H      2       1.000          0.330                         0.670
    291       H      2       1.000          0.327                         0.673
    292       O      1       6.000          7.349                        -1.349
    293       H      2       1.000          0.328                         0.672
    294       H      2       1.000          0.330                         0.670
    295       O      1       6.000          7.339                        -1.339
    296       H      2       1.000          0.328                         0.672
    297       H      2       1.000          0.328                         0.672
    298       O      1       6.000          7.342                        -1.342
    299       H      2       1.000          0.328                         0.672
    300       H      2       1.000          0.328                         0.672
    301       O      1       6.000          7.330                        -1.330
    302       H      2       1.000          0.330                         0.670
    303       H      2       1.000          0.330                         0.670
    304       O      1       6.000          7.351                        -1.351
    305       H      2       1.000          0.328                         0.672
    306       H      2       1.000          0.327                         0.673
    307       O      1       6.000          7.327                        -1.327
    308       H      2       1.000          0.327                         0.673
    309       H      2       1.000          0.329                         0.671
    310       O      1       6.000          7.337                        -1.337
    311       H      2       1.000          0.329                         0.671
    312       H      2       1.000          0.328                         0.672
    313       O      1       6.000          7.356                        -1.356
    314       H      2       1.000          0.329                         0.671
    315       H      2       1.000          0.329                         0.671
    316       O      1       6.000          7.345                        -1.345
    317       H      2       1.000          0.328                         0.672
    318       H      2       1.000          0.329                         0.671
    319       O      1       6.000          7.342                        -1.342
    320       H      2       1.000          0.330                         0.670
    321       H      2       1.000          0.329                         0.671
    322       O      1       6.000          7.375                        -1.375
    323       H      2       1.000          0.328                         0.672
    324       H      2       1.000          0.328                         0.672
    325       O      1       6.000          7.343                        -1.343
    326       H      2       1.000          0.331                         0.669
    327       H      2       1.000          0.328                         0.672
    328       O      1       6.000          7.343                        -1.343
    329       H      2       1.000          0.327                         0.673
    330       H      2       1.000          0.327                         0.673
    331       O      1       6.000          7.355                        -1.355
    332       H      2       1.000          0.329                         0.671
    333       H      2       1.000          0.330                         0.670
    334       O      1       6.000          7.327                        -1.327
    335       H      2       1.000          0.327                         0.673
    336       H      2       1.000          0.330                         0.670
    337       O      1       6.000          7.328                        -1.328
    338       H      2       1.000          0.328                         0.672
    339       H      2       1.000          0.330                         0.670
    340       O      1       6.000          7.360                        -1.360
    341       H      2       1.000          0.329                         0.671
    342       H      2       1.000          0.329                         0.671
    343       O      1       6.000          7.339                        -1.339
    344       H      2       1.000          0.327                         0.673
    345       H      2       1.000          0.329                         0.671
    346       O      1       6.000          7.340                        -1.340
    347       H      2       1.000          0.329                         0.671
    348       H      2       1.000          0.330                         0.670
    349       O      1       6.000          7.336                        -1.336
    350       H      2       1.000          0.327                         0.673
    351       H      2       1.000          0.329                         0.671
    352       O      1       6.000          7.351                        -1.351
    353       H      2       1.000          0.330                         0.670
    354       H      2       1.000          0.328                         0.672
    355       O      1       6.000          7.340                        -1.340
    356       H      2       1.000          0.329                         0.671
    357       H      2       1.000          0.327                         0.673
    358       O      1       6.000          7.344                        -1.344
    359       H      2       1.000          0.328                         0.672
    360       H      2       1.000          0.329                         0.671
    361       O      1       6.000          7.338                        -1.338
    362       H      2       1.000          0.330                         0.670
    363       H      2       1.000          0.328                         0.672
    364       O      1       6.000          7.339                        -1.339
    365       H      2       1.000          0.328                         0.672
    366       H      2       1.000          0.329                         0.671
    367       O      1       6.000          7.342                        -1.342
    368       H      2       1.000          0.327                         0.673
    369       H      2       1.000          0.329                         0.671
    370       O      1       6.000          7.336                        -1.336
    371       H      2       1.000          0.330                         0.670
    372       H      2       1.000          0.329                         0.671
    373       O      1       6.000          7.323                        -1.323
    374       H      2       1.000          0.327                         0.673
    375       H      2       1.000          0.330                         0.670
    376       O      1       6.000          7.346                        -1.346
    377       H      2       1.000          0.327                         0.673
    378       H      2       1.000          0.329                         0.671
    379       O      1       6.000          7.339                        -1.339
    380       H      2       1.000          0.328                         0.672
    381       H      2       1.000          0.330                         0.670
    382       O      1       6.000          7.349                        -1.349
    383       H      2       1.000          0.328                         0.672
    384       H      2       1.000          0.328                         0.672
    385       O      1       6.000          7.342                        -1.342
    386       H      2       1.000          0.330                         0.670
    387       H      2       1.000          0.327                         0.673
    388       O      1       6.000          7.349                        -1.349
    389       H      2       1.000          0.328                         0.672
    390       H      2       1.000          0.330                         0.670
    391       O      1       6.000          7.339                        -1.339
    392       H      2       1.000          0.328                         0.672
    393       H      2       1.000          0.328                         0.672
    394       O      1       6.000          7.342                        -1.342
    395       H      2       1.000          0.328                         0.672
    396       H      2       1.000          0.328                         0.672
    397       O      1       6.000          7.330                        -1.330
    398       H      2       1.000          0.330                         0.670
    399       H      2       1.000          0.330                         0.670
    400       O      1       6.000          7.351                        -1.351
    401       H      2       1.000          0.328                         0.672
    402       H      2       1.000          0.327                         0.673
    403       O      1       6.000          7.327                        -1.327
    404       H      2       1.000          0.327                         0.673
    405       H      2       1.000          0.329                         0.671
    406       O      1       6.000          7.337                        -1.337
    407       H      2       1.000          0.329                         0.671
    408       H      2       1.000          0.328                         0.672
    409       O      1       6.000          7.356                        -1.356
    410       H      2       1.000          0.329                         0.671
    411       H      2       1.000          0.329                         0.671
    412       O      1       6.000          7.345                        -1.345
    413       H      2       1.000          0.328                         0.672
    414       H      2       1.000          0.329                         0.671
    415       O      1       6.000          7.342                        -1.342
    416       H      2       1.000          0.330                         0.670
    417       H      2       1.000          0.329                         0.671
    418       O      1       6.000          7.375                        -1.375
    419       H      2       1.000          0.328                         0.672
    420       H      2       1.000          0.328                         0.672
    421       O      1       6.000          7.343                        -1.343
    422       H      2       1.000          0.331                         0.669
    423       H      2       1.000          0.328                         0.672
    424       O      1       6.000          7.343                        -1.343
    425       H      2       1.000          0.327                         0.673
    426       H      2       1.000          0.327                         0.673
    427       O      1       6.000          7.355                        -1.355
    428       H      2       1.000          0.329                         0.671
    429       H      2       1.000          0.330                         0.670
    430       O      1       6.000          7.327                        -1.327
    431       H      2       1.000          0.327                         0.673
    432       H      2       1.000          0.330                         0.670
    433       O      1       6.000          7.328                        -1.328
    434       H      2       1.000          0.328                         0.672
    435       H      2       1.000          0.330                         0.670
    436       O      1       6.000          7.360                        -1.360
    437       H      2       1.000          0.329                         0.671
    438       H      2       1.000          0.329                         0.671
    439       O      1       6.000          7.339                        -1.339
    440       H      2       1.000          0.327                         0.673
    441       H      2       1.000          0.329                         0.671
    442       O      1       6.000          7.340                        -1.340
    443       H      2       1.000          0.329                         0.671
    444       H      2       1.000          0.330                         0.670
    445       O      1       6.000          7.336                        -1.336
    446       H      2       1.000          0.327                         0.673
    447       H      2       1.000          0.329                         0.671
    448       O      1       6.000          7.351                        -1.351
    449       H      2       1.000          0.330                         0.670
    450       H      2       1.000          0.328                         0.672
    451       O      1       6.000          7.340                        -1.340
    452       H      2       1.000          0.329                         0.671
    453       H      2       1.000          0.327                         0.673
    454       O      1       6.000          7.344                        -1.344
    455       H      2       1.000          0.328                         0.672
    456       H      2       1.000          0.329                         0.671
    457       O      1       6.000          7.338                        -1.338
    458       H      2       1.000          0.330                         0.670
    459       H      2       1.000          0.328                         0.672
    460       O      1       6.000          7.339                        -1.339
    461       H      2       1.000          0.328                         0.672
    462       H      2       1.000          0.329                         0.671
    463       O      1       6.000          7.342                        -1.342
    464       H      2       1.000          0.327                         0.673
    465       H      2       1.000          0.329                         0.671
    466       O      1       6.000          7.335                        -1.335
    467       H      2       1.000          0.330                         0.670
    468       H      2       1.000          0.329                         0.671
    469       O      1       6.000          7.323                        -1.323
    470       H      2       1.000          0.327                         0.673
    471       H      2       1.000          0.330                         0.670
    472       O      1       6.000          7.346                        -1.346
    473       H      2       1.000          0.327                         0.673
    474       H      2       1.000          0.329                         0.671
    475       O      1       6.000          7.339                        -1.339
    476       H      2       1.000          0.328                         0.672
    477       H      2       1.000          0.330                         0.670
    478       O      1       6.000          7.348                        -1.348
    479       H      2       1.000          0.328                         0.672
    480       H      2       1.000          0.328                         0.672
    481       O      1       6.000          7.342                        -1.342
    482       H      2       1.000          0.330                         0.670
    483       H      2       1.000          0.327                         0.673
    484       O      1       6.000          7.349                        -1.349
    485       H      2       1.000          0.328                         0.672
    486       H      2       1.000          0.330                         0.670
    487       O      1       6.000          7.339                        -1.339
    488       H      2       1.000          0.328                         0.672
    489       H      2       1.000          0.328                         0.672
    490       O      1       6.000          7.342                        -1.342
[...]
 buffer_matrices_ensure_size        242  9.5    0.292    0.338    0.292    0.338
 pw_copy                             16 11.9    0.291    0.338    0.291    0.338
 mp_sum_im3                           4  9.0    0.187    0.310    0.187    0.310
 dbcsr_desymmetrize_deep              2  7.5    0.141    0.159    0.264    0.307
 cp_dbcsr_alloc_block_from_nbl        5  5.4    0.175    0.222    0.255    0.303
 mp_alltoall_l                        9  9.4    0.135    0.299    0.135    0.299
 xc_rho_set_and_dset_create           2 11.5    0.000    0.000    0.269    0.292
 matrix_ls_to_qs                      1  6.0    0.000    0.000    0.207    0.282
 build_neighbor_lists_sab_all         1  5.0    0.221    0.266    0.221    0.266
 xc_functional_eval                   2 12.5    0.223    0.240    0.223    0.240
 dbcsr_rep_row_to_rep_col_vec        67 11.1    0.012    0.014    0.189    0.233
 rs_pw_transfer_PW2RS_50              2 13.5    0.058    0.062    0.208    0.229
 dbcsr_col_vec_to_rep_row            67 11.1    0.008    0.012    0.186    0.219
 build_core_ppnl                      1  5.0    0.192    0.218    0.192    0.218
 calculate_norms                    904 10.6    0.175    0.215    0.175    0.215
 multiply_cannon_metrocomm4         363 10.5    0.002    0.002    0.148    0.213
 rs_pw_transfer_RS2PW_50              2 10.5    0.069    0.075    0.163    0.210
 ls_scf_store_result                  1  5.0    0.000    0.000    0.177    0.199
 mp_alltoall_l11v                     1  9.0    0.087    0.194    0.087    0.194
 build_neighbor_lists_sac_ppl         1  5.0    0.162    0.193    0.162    0.193
 mp_alltoall_i22                      9  9.0    0.119    0.177    0.119    0.177
 build_neighbor_lists_sab_orb         1  5.0    0.144    0.172    0.144    0.172
 fft_wrap_pw1pw2_20                   4 13.0    0.014    0.020    0.121    0.164
 build_kinetic_matrix_low             1  5.0    0.095    0.104    0.145    0.163
 calculate_ecore_overlap              1  4.0    0.001    0.001    0.100    0.163
 dbcsr_sort_indices                 418 11.7    0.140    0.163    0.140    0.163
 dbcsr_sym_m_v_mult_local_mm         67 11.1    0.119    0.159    0.119    0.160
 build_overlap_matrix_low             1  5.0    0.078    0.090    0.132    0.153
 dbcsr_new_transposed                 4  7.5    0.004    0.006    0.139    0.151
 tree_to_linear_d                    97 11.1    0.106    0.149    0.106    0.149
 dbcsr_data_new                    3630 10.4    0.118    0.147    0.118    0.147
 dbcsr_redistribute                   4  8.5    0.091    0.127    0.133    0.145
 build_neighbor_lists_sap_ppnl        1  5.0    0.124    0.145    0.124    0.145
 quick_finalize                     248 11.5    0.015    0.038    0.104    0.135
 mp_bcast_b                          68 10.0    0.070    0.133    0.070    0.133
 dbcsr_dot_sd                         5  9.2    0.052    0.077    0.109    0.122
 pw_poisson_rebuild                   2 10.5    0.081    0.116    0.081    0.116
 mp_bcast_dv                         67 12.1    0.062    0.112    0.062    0.112
 make_images_pack                   242 10.5    0.098    0.108    0.102    0.112
 pw_axpy                             10  9.5    0.092    0.109    0.092    0.109
 Gram_Schmidt_ortho_d                65 10.1    0.003    0.017    0.068    0.107
 pw_zero                              2  9.5    0.094    0.102    0.094    0.102
 load_balance_replicated              1  8.0    0.024    0.030    0.101    0.101
 mp_isend_dm3                        76 12.3    0.062    0.092    0.062    0.092
 dbcsr_reserve_blocks                14  9.6    0.033    0.039    0.080    0.088
 dbcsr_add_d                         14  7.4    0.000    0.000    0.052    0.087
 dbcsr_add_anytype                   14  8.4    0.021    0.040    0.052    0.087
 merge_index                        234 10.8    0.073    0.085    0.073    0.085
 dbcsr_scale_anytype                 38  9.0    0.051    0.082    0.054    0.084
 matrix_decluster                     1  7.0    0.000    0.000    0.078    0.084
 evaluate_core_matrix_traces          2  7.5    0.000    0.001    0.078    0.078
 calculate_ptrace_kp                  4  8.5    0.000    0.000    0.078    0.078
 arnoldi_init                         2  9.5    0.000    0.001    0.056    0.075
 dbcsr_special_finalize             242 10.5    0.001    0.001    0.052    0.075
 dbcsr_set                          277 11.4    0.000    0.000    0.021    0.072
 dbcsr_zero                         277 12.4    0.021    0.072    0.021    0.072
 rs_pw_transfer_PW2RS_20              2 13.5    0.014    0.017    0.060    0.067
 dbcsr_create_new                   999 10.2    0.023    0.039    0.045    0.066
 dbcsr_filter_anytype                15  7.3    0.012    0.014    0.025    0.065
 qs_env_rebuild_rho                   1  5.0    0.000    0.000    0.055    0.064
 qs_rho_rebuild                       1  6.0    0.000    0.001    0.055    0.064
 rs_pw_transfer_RS2PW_20              2 10.5    0.018    0.022    0.052    0.063
 create_qs_kind_set                   1  2.0    0.000    0.000    0.035    0.062
 read_qs_kind                         2  3.0    0.007    0.010    0.035    0.062
 dbcsr_trace_sd                       8  6.5    0.000    0.000    0.044    0.061
 dbcsr_trace_d                        8  7.5    0.001    0.002    0.044    0.061
 mp_sum_iv                          117  9.6    0.052    0.059    0.052    0.059
 dbcsr_add_on_diag                   84  7.8    0.011    0.028    0.037    0.059
 calculate_atomic_block_dm            1  7.0    0.013    0.014    0.045    0.058
 dbcsr_sort_data                    115 10.6    0.049    0.058    0.049    0.058
 dbcsr_make_index_list              242  9.5    0.025    0.057    0.025    0.057
 dbcsr_scale_d                       24  7.7    0.000    0.000    0.039    0.057
 dbcsr_data_release                6607 10.9    0.046    0.056    0.046    0.056
 parser_read_line                  2946  4.0    0.001    0.001    0.028    0.054
 topology_control                     1  2.0    0.000    0.000    0.033    0.054
 parser_read_line_low                 5  5.0    0.002    0.006    0.027    0.054
 broadcast_input_information          5  6.0    0.000    0.000    0.025    0.052
 connectivity_control                 1  3.0    0.000    0.000    0.029    0.050
 get_fft_scratch                     22 14.0    0.019    0.048    0.019    0.048
 external_control                     2  5.0    0.000    0.001    0.012    0.048
 fft3d_s                              1  2.0    0.000    0.000    0.018    0.047
 dbcsr_work_destroy_all             482 10.7    0.027    0.032    0.041    0.047
 multiply_cannon_multrec_finali     121 11.5    0.000    0.001    0.042    0.046
 dbcsr_mm_multrec_finalize          121 12.5    0.014    0.016    0.042    0.045
 fft_wrap_pw1pw2_10                   4 13.0    0.003    0.005    0.036    0.043
 pw_scale                             2  9.5    0.027    0.042    0.027    0.042
 mp_bcast_i                         106  2.9    0.018    0.041    0.018    0.041
 topology_generate_bond               1  4.0    0.000    0.000    0.019    0.040
 topology_generate_bond_3             1  5.0    0.000    0.000    0.019    0.040
 build_fist_neighbor_lists            1  6.0    0.000    0.000    0.019    0.040
 build_neighbor_lists                 1  7.0    0.019    0.040    0.019    0.040
 mp_isend_iv                       1210 11.5    0.024    0.038    0.024    0.038
 dbcsr_mm_multrec_init              121  9.5    0.001    0.001    0.034    0.036
 dbcsr_destroy                      931  9.1    0.005    0.008    0.027    0.036
 dbcsr_mm_csr_init                  121 10.5    0.007    0.007    0.033    0.035
 create_fast_col_vec_access         134 11.1    0.000    0.000    0.030    0.035
 create_fast_col_vec_access_d       134 12.1    0.030    0.035    0.030    0.035
 mp_sum_i                            10  5.2    0.031    0.034    0.031    0.034
 restraint_control                    1  2.0    0.001    0.001    0.030    0.032
 create_fast_row_vec_access         134 11.1    0.000    0.000    0.026    0.032
 create_fast_row_vec_access_d       134 12.1    0.025    0.031    0.026    0.031
 mp_max_i                           381  1.7    0.024    0.031    0.024    0.031
 multrec_filtering                  113 13.6    0.027    0.030    0.027    0.030
 rs_pw_transfer_PW2RS_10              2 13.5    0.004    0.006    0.022    0.029
 mp_irecv_dv                       1231 11.9    0.016    0.029    0.016    0.029
 fill_hash_tables                   121 11.5    0.026    0.028    0.026    0.028
 dbcsr_add_wm_from_matrix             2  7.5    0.002    0.009    0.005    0.026
 setup_buffer_matrices              242  9.5    0.002    0.004    0.017    0.025
 dbcsr_fill_wm_from_matrix            2  8.5    0.003    0.025    0.003    0.025
 distribute_molecules_2d              1  4.0    0.006    0.006    0.024    0.024
 dbcsr_get_data_size_used           240  9.8    0.007    0.024    0.007    0.024
 mp_alltoall_i11v                    23  9.1    0.022    0.024    0.022    0.024
 dbcsr_make_untransposed_blocks     121  8.5    0.018    0.021    0.021    0.024
 mp_irecv_dm3                        76 12.3    0.010    0.024    0.010    0.024
 pw_grid_distribute                   4  8.0    0.021    0.021    0.022    0.022
 mp_cart_create                       5  9.2    0.013    0.021    0.013    0.021
 dbcsr_make_index_exist             999 11.2    0.012    0.021    0.012    0.021
 dbcsr_data_copy_aa2                 30 11.3    0.019    0.020    0.019    0.020
 rs_pw_transfer_RS2PW_10              2 10.5    0.005    0.008    0.017    0.020
 dbcsr_make_dbcsr_index             501 11.6    0.013    0.019    0.013    0.019
 dbcsr_iterator_start              1318 11.2    0.005    0.009    0.014    0.018
 make_basic_spatial_distributio       1  5.0    0.018    0.018    0.018    0.018
 dbcsr_work_create                  482  9.7    0.004    0.007    0.009    0.015
 build_neighbor_lists_sab_core        1  5.0    0.014    0.014    0.014    0.014
 DGKS_ortho_d                        65 10.1    0.001    0.006    0.004    0.014
 arnoldi_iram                         1  9.0    0.006    0.014    0.006    0.014
 topology_generate_molecule           1  4.0    0.005    0.013    0.005    0.013
 dbcsr_iterator_seek               1318 12.2    0.010    0.011    0.010    0.011
 mp_bcast_iv                         12  6.6    0.004    0.011    0.004    0.011
 dbcsr_distribution_new             253  8.6    0.009    0.010    0.009    0.010
 mp_bcast_am                          5  7.0    0.006    0.009    0.007    0.010
 create_col_vec_from_matrix           5  9.4    0.000    0.000    0.002    0.009
 mp_allgather_l                       9  9.4    0.006    0.009    0.006    0.009
 mp_cart_sub                          2 10.0    0.008    0.008    0.008    0.008
 dbcsr_gershgorin_norm                4  8.0    0.004    0.005    0.007    0.007
 dbcsr_iterator_stop               1318 11.2    0.002    0.007    0.003    0.007
 mp_comm_dup                          8  6.5    0.006    0.007    0.006    0.007
 mp_bcast_av                        442  1.0    0.001    0.001    0.006    0.006
 mp_sum_im                            5  6.8    0.005    0.005    0.005    0.005
 pw_pool_create_pw                   48 10.2    0.000    0.000    0.002    0.004
 pw_create                           21 10.7    0.002    0.004    0.002    0.004
 mp_comm_free                        13  2.6    0.001    0.004    0.001    0.004
 write_qs_kind_set                    1  3.0    0.000    0.004    0.000    0.004
 topology_molecules_check             1  4.0    0.003    0.004    0.003    0.004
 topology_muc                         1  4.0    0.001    0.003    0.001    0.003
 mp_maxloc_dv                       885  1.0    0.003    0.003    0.003    0.003
 mp_max_l                            22  1.8    0.002    0.003    0.002    0.003
 dbcsr_reserve_all_blocks             9 10.4    0.000    0.000    0.001    0.002
 mp_sum_lv                            7  5.4    0.001    0.002    0.001    0.002
 mp_bcast_im                          3 10.3    0.001    0.002    0.001    0.002
 topology_connectivity_pack           1  3.0    0.000    0.000    0.001    0.002
 dbcsr_make_index_local_row         242  9.5    0.002    0.002    0.002    0.002
 topology_coordinate_pack             1  3.0    0.000    0.000    0.001    0.002
 mp_irecv_iv                       1210 11.5    0.001    0.002    0.001    0.002
 create_replicated_row_vec_from       2  9.5    0.000    0.000    0.000    0.002
 transpose_index_local                4  8.5    0.000    0.000    0.001    0.001
 pw_grid_allocate                     4  8.0    0.001    0.001    0.001    0.001
 mp_comm_compare                     24 13.7    0.000    0.001    0.000    0.001
 compute_max_radius                   1  6.0    0.001    0.001    0.001    0.001
 matrix_ls_create                     1  5.0    0.000    0.001    0.000    0.001
 init_cube_info                       4  6.0    0.001    0.001    0.001    0.001
 dbcsr_switch_data_area             490 11.0    0.001    0.001    0.001    0.001
 topology_coordinate_pack_3           1  4.0    0.001    0.001    0.001    0.001
 create_replicated_col_vec_from       2  9.5    0.000    0.000    0.000    0.001
 dbcsr_index_compact                 11  8.1    0.000    0.001    0.000    0.001
 atom2d_build                         1  5.0    0.001    0.001    0.001    0.001
 ec_env_release                       1  2.0    0.000    0.001    0.000    0.001
 lgrid_allocate_grid                  1  9.0    0.000    0.001    0.000    0.001
 distribute_molecules_1d              1  3.0    0.001    0.001    0.001    0.001
 write_qs_control                     1  3.0    0.000    0.001    0.000    0.001
 ls_scf_release                       1  2.0    0.000    0.001    0.000    0.001
 write_dft_control                    1  3.0    0.000    0.001    0.000    0.001
 topology_connectivity_pack_3         1  4.0    0.000    0.001    0.000    0.001
 dump_info_core_hamiltonian           1  5.0    0.000    0.001    0.000    0.001
 rs_grid_create_descriptor            4  6.0    0.000    0.000    0.000    0.000
 coordinate_control                   1  3.0    0.000    0.000    0.000    0.000
 coordinate_control_READ_COORDI       1  4.0    0.000    0.000    0.000    0.000
 compute_evals                        3  9.3    0.000    0.000    0.000    0.000
 read_atoms_input                     1  5.0    0.000    0.000    0.000    0.000
 rs_grid_create                       8  6.5    0.000    0.000    0.000    0.000
 dbcsr_mm_sched_init                121 11.5    0.000    0.000    0.000    0.000
 dbcsr_finalize_lib                   1  2.0    0.000    0.000    0.000    0.000
 calculate_atom                       2  8.0    0.000    0.000    0.000    0.000
 calculate_atom_restricted            2  9.0    0.000    0.000    0.000    0.000
 ls_scf_create                        1  2.0    0.000    0.000    0.000    0.000
 mp_sum_b                            14  7.4    0.000    0.000    0.000    0.000
 topology_generate_bond_4             1  5.0    0.000    0.000    0.000    0.000
 topology_generate_bend               1  4.0    0.000    0.000    0.000    0.000
 mp_sync                              4  7.0    0.000    0.000    0.000    0.000
 mp_environ_l                       123  4.7    0.000    0.000    0.000    0.000
 init_qs_kind_set                     1  3.0    0.000    0.000    0.000    0.000
 topology_connectivity_pack_9         1  4.0    0.000    0.000    0.000    0.000
 init_qs_kind                         2  4.0    0.000    0.000    0.000    0.000
 topology_connectivity_pack_10        1  4.0    0.000    0.000    0.000    0.000
 topology_coordinate_pack_7a          1  4.0    0.000    0.000    0.000    0.000
 release_fast_vec_access            268 11.1    0.000    0.000    0.000    0.000
 atom_int_setup                       2  8.0    0.000    0.000    0.000    0.000
 mp_rank_compare                     21 14.5    0.000    0.000    0.000    0.000
 topology_connectivity_pack_1         1  4.0    0.000    0.000    0.000    0.000
 topology_coordinate_pack_7b          1  4.0    0.000    0.000    0.000    0.000
 dbcsr_get_local_rows               121  8.5    0.000    0.000    0.000    0.000
 init_orb_basis_set                   2  5.0    0.000    0.000    0.000    0.000
 create_grid_atom                     2  8.0    0.000    0.000    0.000    0.000
 mp_environ_c                        21 14.5    0.000    0.000    0.000    0.000
 dbcsr_mm_sched_finalize            121 13.5    0.000    0.000    0.000    0.000
 init_cphi_and_sphi                   2  6.0    0.000    0.000    0.000    0.000
 pw_pool_give_back_pw                50 10.9    0.000    0.000    0.000    0.000
 qs_scf_post_ps_implicit              1  6.0    0.000    0.000    0.000    0.000
 topology_generate_molecule_PAR       1  5.0    0.000    0.000    0.000    0.000
 topology_connectivity_pack_7         1  4.0    0.000    0.000    0.000    0.000
 connectivity_control_check_ele       1  4.0    0.000    0.000    0.000    0.000
 topology_constraint_pack             1  3.0    0.000    0.000    0.000    0.000
 dbcsr_get_local_cols               121  8.5    0.000    0.000    0.000    0.000
 qs_scf_post_transport                1  6.0    0.000    0.000    0.000    0.000
 transport_current                    1  7.0    0.000    0.000    0.000    0.000
 dbcsr_get_global_row_map           121  8.5    0.000    0.000    0.000    0.000
 init_interaction_radii               1  3.0    0.000    0.000    0.000    0.000
 check_qs_kind_set                    1  3.0    0.000    0.000    0.000    0.000
 topology_constraint_pack_1           1  4.0    0.000    0.000    0.000    0.000
 ls_scf_init_read_write_input         1  3.0    0.000    0.000    0.000    0.000
 dbcsr_get_global_col_map           121  8.5    0.000    0.000    0.000    0.000
 qs_energies_properties               1  3.0    0.000    0.000    0.000    0.000
 topology_coordinate_pack_5           1  4.0    0.000    0.000    0.000    0.000
 topology_connectivity_pack_8         1  4.0    0.000    0.000    0.000    0.000
 topology_coordinate_pack_6           1  4.0    0.000    0.000    0.000    0.000
 topology_generate_dihe               1  4.0    0.000    0.000    0.000    0.000
 topology_connectivity_pack_11        1  4.0    0.000    0.000    0.000    0.000
 topology_connectivity_pack_6         1  4.0    0.000    0.000    0.000    0.000
 dbcsr_mm_hostdrv_init              121 12.5    0.000    0.000    0.000    0.000
 topology_connectivity_pack_12        1  4.0    0.000    0.000    0.000    0.000
 topology_generate_bond_1             1  5.0    0.000    0.000    0.000    0.000
 atom_ppint_setup                     2  8.0    0.000    0.000    0.000    0.000
 write_ks_matrix_csr                  1  6.0    0.000    0.000    0.000    0.000
 calculate_atom_vxc_lda               2 10.0    0.000    0.000    0.000    0.000
 mp_max_lv                            4  8.0    0.000    0.000    0.000    0.000
 mp_min_lv                            4  8.0    0.000    0.000    0.000    0.000
 mp_min_i                             8  6.0    0.000    0.000    0.000    0.000
 atom2d_cleanup                       1  5.0    0.000    0.000    0.000    0.000
 -------------------------------------------------------------------------------

 The number of warnings for this run is : 0
 
 -------------------------------------------------------------------------------
  **** **** ******  **  PROGRAM ENDED AT                 2020-04-17 14:46:34.980
 ***** ** ***  *** **   PROGRAM RAN ON                                   cn-0010
 **    ****   ******    PROGRAM RAN BY                                      lass
 ***** **    ** ** **   PROGRAM PROCESS ID                                250845
  **** **  *******  **  PROGRAM STOPPED IN /scratch/hpc-prf-ldft/lass/lass20_sc/
                                           eval/software/varying-eps-NS-tweaked
